12
Energy = -157.0570910790
C    -2.4188372   -0.0325556    1.7278937 
C    -3.3403083   -0.2686382    2.6735234 
H    -2.3428363   -0.6577193    0.8229918 
H    -1.6977225    0.7968491    1.8147389 
H    -4.0614493   -1.0980107    2.5866675 
H    -3.4163583    0.3565267    3.5784140 
C     5.0831537    0.4571939   -4.7683299 
C     5.2982268   -0.1560058   -3.5949747 
H     4.1277182    0.9587168   -4.9943269 
H     5.8525568    0.4861122   -5.5573918 
H     4.5288454   -0.1849446   -2.8058973 
H     6.2536585   -0.6575246   -3.3690066 
