12
 Energy =    -156.8921888148
 C    0.6614406    0.0000000    0.0000000  0.00    0.3759466   -0.0008962   -0.5113317
 C   -0.6614406    0.0000000    0.0000000  0.00   -0.1758021   -0.0002531   -0.0559395
 H    1.2309190   -0.9231101    0.0000000  0.00    0.1610980   -0.2409639    0.0004027
 H    1.2309190    0.9231101    0.0000000  0.00    0.1658202    0.2379166   -0.0112761
 H   -1.2309190   -0.9231101    0.0000000  0.00   -0.1757925   -0.2618637   -0.0055609
 H   -1.2309190    0.9231101    0.0000000  0.00   -0.1755525    0.2625080   -0.0036608
 C    0.9578845   -0.4682183   -4.3858251  0.00   -0.0705136   -0.0777632   -0.2139552
 C    1.4240802   -0.0081746   -3.2364618  0.00   -0.0555897    0.0825887    0.7979087
 H    0.9643524   -1.5272521   -4.6200119  0.00   -0.0043073   -0.3138059   -0.0821267
 H    0.5500375    0.1947332   -5.1412019  0.00   -0.1287217    0.1866082   -0.2328450
 H    1.8319271   -0.6711262   -2.4810850  0.00    0.0869970   -0.1428257    0.2251828
 H    1.4176123    1.0508592   -3.0022750  0.00   -0.0036279    0.2687590    0.0933319
12
 Energy =    -156.9036042418
 C    0.7106900   -0.0076164   -0.0769921  0.00    0.1692804    0.0380780   -0.4615371
 C   -0.6187458   -0.0070616   -0.1632358  0.00   -0.0442813    0.0032526   -0.0512504
 H    1.2767813   -0.9310033    0.0415217  0.00    0.1139482   -0.1769158    0.0265849
 H    1.2890261    0.9174476   -0.1238029  0.00    0.0961878    0.1360589   -0.0088773
 H   -1.1972949   -0.9329018   -0.1193452  0.00   -0.0904280   -0.1358584   -0.0006086
 H   -1.1858933    0.9192162   -0.2824111  0.00   -0.0884003    0.1355611   -0.0241765
 C    0.8923739   -0.4474736   -4.2674437  0.00   -0.0153918   -0.0205037   -0.0901172
 C    1.4004668   -0.0168493   -3.1121052  0.00   -0.1855033    0.1083030    0.4926295
 H    0.9294599   -1.5015071   -4.5537284  0.00    0.0027711   -0.1568775   -0.0476700
 H    0.4172420    0.2355753   -4.9759940  0.00   -0.0781942    0.0951816   -0.1072058
 H    1.8711091   -0.6926577   -2.4087570  0.00    0.1263793   -0.1771991    0.2122868
 H    1.3606789    1.0356529   -2.8245672  0.00   -0.0063250    0.1509132    0.0599063
12
 Energy =    -156.9168421038
 C    0.8056771   -0.0173462   -0.2411770  0.00   -0.0384125    0.0078631   -0.1609923
 C   -0.5029132   -0.0345301   -0.5348063  0.00    0.0742945    0.0055020    0.0803651
 H    1.3318319   -0.9100872    0.1335131  0.00   -0.0048946   -0.0060518    0.0106741
 H    1.4121480    0.8934458   -0.3615114  0.00    0.0007052   -0.0095694    0.0663919
 H   -1.1106494   -0.9446035   -0.4165049  0.00   -0.0064417   -0.0192255   -0.0173781
 H   -1.0230425    0.8594945   -0.9114441  0.00   -0.0054481    0.0098200   -0.0183192
 C    0.7411535   -0.4010279   -3.9942435  0.00    0.0779730    0.0156185    0.0065191
 C    1.3404954   -0.0270453   -2.8502242  0.00   -0.2592464    0.1585181    0.0777244
 H    0.8310743   -1.4257719   -4.3862941  0.00   -0.0077374   -0.0274073   -0.0035161
 H    0.1331048    0.3005484   -4.5856703  0.00   -0.0209586    0.0129515   -0.0072909
 H    1.9387209   -0.7184404   -2.2623120  0.00    0.1466696   -0.1304929    0.0767298
 H    1.2482932    0.9961851   -2.4561861  0.00    0.0435081   -0.0175094   -0.1109022
12
 Energy =    -156.9171800094
 C    0.8265716   -0.0368101   -0.2601243  0.00   -0.0485011    0.0127064    0.1053901
 C   -0.4718822   -0.0215768   -0.5830460  0.00   -0.0066295   -0.0110460    0.0070728
 H    1.3364326   -0.9580441    0.0626497  0.00   -0.0042128   -0.0206335    0.0087413
 H    1.4127780    0.8900410   -0.1866664  0.00    0.0580109    0.0138968   -0.0890852
 H   -1.0835011   -0.9362574   -0.5638901  0.00    0.0003157   -0.0282597   -0.0623850
 H   -0.9734082    0.8988177   -0.9183658  0.00   -0.0224702    0.0249589    0.0338927
 C    0.7111317   -0.4254687   -3.9576713  0.00   -0.0195109   -0.0349570   -0.0436825
 C    1.2827536   -0.0046540   -2.8180374  0.00    0.1167878    0.0487855    0.0263686
 H    0.8512173   -1.4519405   -4.3304588  0.00   -0.0724663   -0.0499704    0.0339442
 H    0.0591832    0.2303835   -4.5548400  0.00    0.0283776    0.0328074   -0.0446529
 H    1.9214746   -0.6681167   -2.2222132  0.00    0.0588457   -0.0049295   -0.0261008
 H    1.2731428    1.0544474   -2.5341972  0.00   -0.0886127    0.0166451    0.0505012
12
 Energy =    -156.9180902749
 C    0.8236637   -0.0363833   -0.2555393  0.00   -0.0038123   -0.0024220    0.0293856
 C   -0.4732430   -0.0252338   -0.5820382  0.00   -0.0156798   -0.0028182   -0.0148351
 H    1.3379442   -0.9596079    0.0554745  0.00    0.0029553   -0.0179639   -0.0202595
 H    1.4216346    0.8855815   -0.2214926  0.00    0.0205383    0.0185030    0.0125736
 H   -1.0671240   -0.9511536   -0.6245323  0.00   -0.0133728   -0.0095710    0.0102661
 H   -0.9871600    0.9024510   -0.8770070  0.00   -0.0095125    0.0126972   -0.0097970
 C    0.7146432   -0.4258259   -3.9492400  0.00   -0.0323497   -0.0237868   -0.0256515
 C    1.2933374    0.0091172   -2.8179134  0.00    0.0856335   -0.0394923    0.0600260
 H    0.7961967   -1.4749914   -4.2748407  0.00   -0.0054855   -0.0164808   -0.0048807
 H    0.0976291    0.2372485   -4.5757918  0.00   -0.0103162    0.0108777   -0.0131808
 H    1.9316047   -0.6556585   -2.2165596  0.00   -0.0066685    0.0369449   -0.0297633
 H    1.2567675    1.0652773   -2.5273804  0.00   -0.0119976    0.0335161    0.0061413
12
 Energy =    -156.9180156184
 C    0.8372880   -0.0602167   -0.2231802  0.00   -0.0520667   -0.0107209    0.0573524
 C   -0.4529934    0.0196894   -0.5770947  0.00    0.0383364   -0.0189611   -0.0242039
 H    1.3115975   -1.0198462    0.0463353  0.00   -0.0192864    0.0124853   -0.0290712
 H    1.4685810    0.8370792   -0.1155072  0.00    0.0033335   -0.0108282   -0.0311280
 H   -1.0845416   -0.8795831   -0.6751382  0.00    0.0147329    0.0219541   -0.0004606
 H   -0.9245672    0.9829497   -0.8361310  0.00    0.0027065   -0.0197374    0.0142654
 C    0.7297253   -0.4562290   -3.9798172  0.00   -0.0224872   -0.0091325    0.0451997
 C    1.2556483    0.0177253   -2.8335914  0.00   -0.0222510    0.0217992   -0.0215264
 H    0.9114290   -1.4916386   -4.3174787  0.00    0.0126248    0.0314734   -0.0039141
 H    0.0521617    0.1532223   -4.6030470  0.00    0.0046791   -0.0186053    0.0223708
 H    1.9604292   -0.5851034   -2.2446639  0.00   -0.0048719    0.0156118    0.0173050
 H    1.0811362    1.0527723   -2.5075466  0.00    0.0445129   -0.0153353   -0.0461429
12
 Energy =    -156.9182344727
 C    0.8323374   -0.0611646   -0.2260158  0.00   -0.0358944    0.0007022    0.0325570
 C   -0.4563561    0.0097141   -0.5861494  0.00    0.0313358   -0.0060422   -0.0246311
 H    1.3103740   -1.0175274    0.0456654  0.00   -0.0114860    0.0026253   -0.0264151
 H    1.4616513    0.8388551   -0.1269839  0.00   -0.0056816   -0.0132776   -0.0150911
 H   -1.0809949   -0.8936224   -0.6871953  0.00    0.0107507    0.0179155    0.0050463
 H   -0.9342552    0.9695577   -0.8455168  0.00    0.0059052   -0.0181079    0.0061279
 C    0.7208249   -0.4537292   -3.9641387  0.00   -0.0204507   -0.0041838    0.0425855
 C    1.2673778    0.0254157   -2.8298417  0.00   -0.0144173    0.0118088   -0.0399641
 H    0.8841748   -1.4947544   -4.2928261  0.00    0.0050210    0.0237236    0.0015151
 H    0.0442335    0.1581724   -4.5856100  0.00    0.0092393   -0.0141523    0.0158190
 H    1.9679379   -0.5823312   -2.2422862  0.00    0.0064360    0.0114422    0.0211849
 H    1.1285886    1.0722353   -2.5259623  0.00    0.0191959   -0.0124616   -0.0186859
12
 Energy =    -156.9184723805
 C    0.8297927   -0.0678547   -0.2423810  0.00   -0.0169527    0.0161868    0.0603249
 C   -0.4453728   -0.0104411   -0.6457791  0.00    0.0101686    0.0113428   -0.0043914
 H    1.3099434   -1.0196520    0.0368009  0.00   -0.0039412   -0.0132931   -0.0160704
 H    1.4484980    0.8372526   -0.1246520  0.00   -0.0099217   -0.0119289   -0.0091128
 H   -1.0564506   -0.9192737   -0.7673129  0.00    0.0046222    0.0046951   -0.0014130
 H   -0.9260711    0.9437973   -0.9172800  0.00    0.0038016   -0.0098067    0.0026789
 C    0.6863515   -0.4490989   -3.9036550  0.00   -0.0082753    0.0039582    0.0178584
 C    1.2891387    0.0482885   -2.8069427  0.00   -0.0119298   -0.0158765   -0.0889144
 H    0.8089586   -1.5025859   -4.2062431  0.00    0.0037388    0.0085911    0.0013020
 H    0.0015667    0.1614865   -4.5159089  0.00    0.0033721   -0.0062425    0.0073522
 H    1.9971436   -0.5616368   -2.2318497  0.00    0.0187617    0.0130115    0.0218797
 H    1.2023952    1.1105394   -2.5416572  0.00    0.0065217   -0.0006736    0.0085396
12
 Energy =    -156.9185798567
 C    0.8284230   -0.1009188   -0.2187708  0.00    0.0470129    0.0116081   -0.0024035
 C   -0.4329384    0.0286244   -0.6419070  0.00   -0.0128238    0.0154373   -0.0312360
 H    1.2771218   -1.0860067   -0.0227200  0.00    0.0076015   -0.0383867   -0.0076450
 H    1.4852860    0.7688278   -0.0569285  0.00   -0.0208904    0.0103900    0.0401265
 H   -1.0621426   -0.8465429   -0.8629510  0.00   -0.0179120   -0.0146078    0.0246443
 H   -0.8855945    1.0152248   -0.8260049  0.00    0.0019720    0.0130416   -0.0242607
 C    0.6937828   -0.4848614   -3.8998715  0.00   -0.0290976   -0.0135768    0.0086670
 C    1.2564774    0.0752842   -2.8140836  0.00    0.0327532    0.0050013   -0.0794645
 H    0.9075090   -1.5248037   -4.1927909  0.00   -0.0143743   -0.0258420    0.0100702
 H   -0.0438932    0.0558401   -4.5136022  0.00    0.0020285    0.0143333   -0.0193435
 H    2.0096977   -0.4689414   -2.2311093  0.00    0.0276281    0.0166068    0.0241929
 H    1.1121650    1.1390949   -2.5861211  0.00   -0.0239143    0.0059528    0.0566489
12
 Energy =    -156.9188831842
 C    0.8226188   -0.1248758   -0.1981949  0.00    0.0331824    0.0320654   -0.0082777
 C   -0.4177058    0.0276257   -0.6794082  0.00    0.0397884    0.0144433   -0.0446292
 H    1.2618225   -1.1200629   -0.0219039  0.00   -0.0141011   -0.0111684   -0.0053561
 H    1.4765497    0.7363195    0.0267864  0.00   -0.0439668   -0.0181788    0.0097657
 H   -1.0469690   -0.8374096   -0.9464940  0.00    0.0108889    0.0137309    0.0144666
 H   -0.8554898    1.0243137   -0.8589869  0.00    0.0154187   -0.0196152   -0.0032942
 C    0.6711637   -0.4958114   -3.8704700  0.00    0.0036983    0.0275347    0.0579243
 C    1.2753058    0.1123600   -2.8290288  0.00   -0.0755800   -0.0343683   -0.1338316
 H    0.8740450   -1.5503323   -4.1257973  0.00   -0.0031127    0.0200519    0.0108738
 H   -0.0965998    0.0166868   -4.4759043  0.00    0.0235591   -0.0066072    0.0094555
 H    2.0606901   -0.4011349   -2.2604366  0.00    0.0166572    0.0150734    0.0414923
 H    1.1204628    1.1831423   -2.6270222  0.00   -0.0064497   -0.0329718    0.0513927
12
 Energy =    -156.9199165127
 C    0.8293731   -0.1695255   -0.1651867  0.00   -0.0080160    0.0318028    0.1134844
 C   -0.3465878    0.0493133   -0.7715642  0.00    0.0834191    0.0026715   -0.1058928
 H    1.2232128   -1.1875034   -0.0038681  0.00   -0.0238534    0.0100255   -0.0104447
 H    1.4780221    0.6587404    0.1759079  0.00   -0.0504273   -0.0308596   -0.0148364
 H   -0.9692130   -0.7814668   -1.1495497  0.00    0.0338087    0.0511864    0.0333685
 H   -0.7356604    1.0694747   -0.9453316  0.00    0.0114446   -0.0598407    0.0295530
 C    0.6266423   -0.5221512   -3.8158766  0.00    0.0297121    0.0409354    0.0414956
 C    1.2435158    0.1609686   -2.8264759  0.00   -0.1077816   -0.0791497   -0.1621156
 H    0.8789817   -1.5752721   -4.0424215  0.00   -0.0040117    0.0651700    0.0123998
 H   -0.1988101   -0.0772260   -4.4028688  0.00    0.0425510   -0.0237469    0.0410035
 H    2.0903442   -0.2802073   -2.2770332  0.00   -0.0402458    0.0391300    0.0061822
 H    1.0260734    1.2256765   -2.6425925  0.00    0.0334126   -0.0473187    0.0158075
12
 Energy =    -156.9097846141
 C    0.7932099   -0.1551501   -0.0076732  0.00    0.3202705    0.1427560   -0.0734066
 C   -0.3985287    0.0594177   -0.5426344  0.00   -0.0646900    0.1259218   -0.2351749
 H    1.2140513   -1.1518231    0.0197365  0.00    0.1774823   -0.3079275    0.0027095
 H    1.4331271    0.6575224    0.3572592  0.00    0.0057430    0.0674297    0.1118463
 H   -0.9794392   -0.7410478   -0.9806921  0.00   -0.1883532   -0.2665697   -0.1057804
 H   -0.8638295    1.0408156   -0.5468082  0.00   -0.0727450    0.2760250   -0.0697112
 C    0.6930482   -0.5407944   -4.0030399  0.00   -0.1733903   -0.0599459   -0.0245754
 C    1.2393925    0.1520580   -3.0071289  0.00    0.1722435    0.0945313    0.2394911
 H    0.9089252   -1.5939934   -4.1525540  0.00    0.0022488   -0.3047803   -0.0046499
 H   -0.0421310   -0.0960921   -4.6700293  0.00   -0.1141957    0.1182648   -0.2145825
 H    1.9804196   -0.2995045   -2.3523691  0.00    0.1170421   -0.0726725    0.1779036
 H    1.1676485    1.2394131   -2.9809273  0.00   -0.1816490    0.1869404    0.1958332
12
 Energy =    -156.9137420003
 C    0.8041794   -0.1576100   -0.0259934  0.00    0.2043560    0.1112854   -0.0534036
 C   -0.3730710    0.0583202   -0.6031762  0.00    0.0123081    0.0952935   -0.2107323
 H    1.2191045   -1.1602090    0.0309672  0.00    0.1396952   -0.2381009    0.0070749
 H    1.4357641    0.6570782    0.3521033  0.00   -0.0038192    0.0552385    0.0923998
 H   -0.9495385   -0.7482140   -1.0467112  0.00   -0.1414345   -0.2031168   -0.0772291
 H   -0.8297101    1.0470341   -0.6400436  0.00   -0.0447071    0.2138205   -0.0662083
 C    0.6716904   -0.5377118   -3.9664887  0.00   -0.1277969   -0.0304864    0.0159264
 C    1.2296152    0.1524092   -2.9689143  0.00    0.1079162    0.0623425    0.1433544
 H    0.8952697   -1.5910753   -4.1305898  0.00    0.0016020   -0.2345997   -0.0023284
 H   -0.0799385   -0.0918618   -4.6196237  0.00   -0.0873869    0.0933811   -0.1653840
 H    1.9889756   -0.2968334   -2.3302582  0.00    0.0953901   -0.0586146    0.1387454
 H    1.1335533    1.2394947   -2.9181322  0.00   -0.1561575    0.1335160    0.1777952
12
 Energy =    -156.9205908176
 C    0.8274632   -0.1631671   -0.0662741  0.00    0.0245785    0.0427069    0.0933860
 C   -0.2947766    0.0535949   -0.7587099  0.00    0.0899590    0.0435374   -0.1714226
 H    1.2217779   -1.1756227    0.0633530  0.00    0.0751202   -0.1175787    0.0110848
 H    1.4289833    0.6565809    0.3531563  0.00   -0.0109450    0.0330437    0.0482196
 H   -0.8503002   -0.7642310   -1.2254371  0.00   -0.0749816   -0.0901885   -0.0122016
 H   -0.7239964    1.0550477   -0.8761431  0.00   -0.0135455    0.0991206   -0.0380403
 C    0.6143099   -0.5288895   -3.8744232  0.00   -0.0538067   -0.0100903    0.0111812
 C    1.1965355    0.1533221   -2.8759926  0.00    0.0299792    0.0431250   -0.0108695
 H    0.8569351   -1.5788700   -4.0736906  0.00    0.0030688   -0.1133358   -0.0018078
 H   -0.1746980   -0.0831549   -4.4922085  0.00   -0.0481051    0.0464681   -0.0747729
 H    1.9973671   -0.2877631   -2.2751617  0.00    0.0527342   -0.0222914    0.0383495
 H    1.0462932    1.2339738   -2.7653293  0.00   -0.0740528    0.0454653    0.1068868
12
 Energy =    -156.9199966870
 C    0.8428140   -0.1769667   -0.0283071  0.00   -0.0481901   -0.0246810    0.3407822
 C   -0.1031673    0.0631497   -0.9457977  0.00   -0.1195356   -0.0473055   -0.1473339
 H    1.2144799   -1.1955403    0.1437242  0.00    0.0334839   -0.0631246    0.0394282
 H    1.2910248    0.6269837    0.5709718  0.00    0.0722724    0.0460314   -0.0043457
 H   -0.5694961   -0.7463326   -1.5173824  0.00   -0.0966900    0.0036087    0.1426051
 H   -0.4992179    1.0706811   -1.1279487  0.00   -0.0949095    0.0212453    0.0824152
 C    0.5156200   -0.5336244   -3.8088009  0.00    0.0265014   -0.0384935   -0.2038041
 C    1.1239037    0.1669156   -2.8373698  0.00    0.2288402    0.0446336    0.0812990
 H    0.7614835   -1.5872709   -4.0004186  0.00    0.0329226   -0.0457417   -0.0310334
 H   -0.2981710   -0.1017025   -4.4076603  0.00   -0.0680734    0.0110292   -0.0070917
 H    1.9634769   -0.2424381   -2.2458514  0.00   -0.0547587    0.0440656   -0.1932669
 H    0.9031433    1.2269665   -2.6620200  0.00    0.0881188    0.0487659   -0.0996771
12
 Energy =    -156.9228166405
 C    0.8417231   -0.1739553   -0.0076121  0.00   -0.0606487   -0.0069216    0.2235782
 C   -0.1456985    0.0715952   -0.8800509  0.00   -0.0002763   -0.0247277   -0.1481637
 H    1.2269294   -1.1925130    0.1340359  0.00    0.0344015   -0.0580756    0.0376238
 H    1.3139026    0.6257872    0.5799320  0.00    0.0552338    0.0376151   -0.0024076
 H   -0.6352820   -0.7340151   -1.4362444  0.00   -0.0580927   -0.0246764    0.0456173
 H   -0.5580323    1.0783610   -1.0284750  0.00   -0.0498203    0.0442441    0.0349592
 C    0.5422604   -0.5406826   -3.8552361  0.00    0.0098157   -0.0095528   -0.0733125
 C    1.1403096    0.1626515   -2.8778140  0.00    0.1149160   -0.0001820    0.1003789
 H    0.7836134   -1.5976260   -4.0360409  0.00    0.0297396   -0.0433217   -0.0268001
 H   -0.2588769   -0.1068118   -4.4702562  0.00   -0.0530491    0.0135773   -0.0152763
 H    1.9650921   -0.2494029   -2.2707192  0.00   -0.0516258    0.0214037   -0.1344084
 H    0.9299529    1.2274329   -2.7183800  0.00    0.0293854    0.0506115   -0.0418153
12
 Energy =    -156.9236160649
 C    0.8376713   -0.1680785    0.0107272  0.00   -0.0740065   -0.0131518    0.1142197
 C   -0.1600492    0.0635470   -0.8607536  0.00    0.0592707   -0.0007302   -0.0908018
 H    1.2220834   -1.1893379    0.1654691  0.00    0.0119349    0.0030835    0.0347851
 H    1.3382287    0.6452543    0.5608272  0.00    0.0119212   -0.0012692   -0.0147266
 H   -0.6685184   -0.7546831   -1.3861332  0.00   -0.0229927   -0.0016954    0.0355273
 H   -0.5765947    1.0713066   -1.0184780  0.00   -0.0105350   -0.0089525    0.0230734
 C    0.5502524   -0.5349803   -3.8778296  0.00    0.0169624    0.0130720   -0.0092981
 C    1.1458356    0.1573841   -2.8857543  0.00    0.0122184    0.0092608    0.0295895
 H    0.7981442   -1.5907425   -4.0769123  0.00    0.0027738    0.0051695   -0.0016077
 H   -0.2531252   -0.0928877   -4.4902041  0.00    0.0004462   -0.0026609    0.0048256
 H    1.9622097   -0.2645102   -2.2788989  0.00   -0.0187380    0.0041637   -0.1029499
 H    0.9497562    1.2285493   -2.7289203  0.00    0.0107321   -0.0063111   -0.0226643
12
 Energy =    -156.9243455372
 C    0.8269736   -0.1622899    0.0565176  0.00   -0.0533343   -0.0071680    0.0348814
 C   -0.1333382    0.0346060   -0.8657725  0.00    0.0282552    0.0210167   -0.0528884
 H    1.2147684   -1.1753707    0.2442407  0.00    0.0218688   -0.0120488    0.0564116
 H    1.3016881    0.6697540    0.6011998  0.00    0.0122015   -0.0009091   -0.0128532
 H   -0.6303696   -0.8054635   -1.3664455  0.00   -0.0014449   -0.0078854    0.0034472
 H   -0.5667026    1.0300044   -1.0518146  0.00    0.0010441   -0.0022345    0.0032147
 C    0.5312030   -0.5181585   -3.8948674  0.00    0.0183286    0.0176928   -0.0119630
 C    1.1562409    0.1654427   -2.9155767  0.00   -0.0215405    0.0135818    0.0673608
 H    0.7452000   -1.5827781   -4.0847986  0.00   -0.0026799   -0.0008548    0.0027713
 H   -0.2604647   -0.0565878   -4.5078837  0.00    0.0032052   -0.0014663   -0.0008073
 H    1.9597809   -0.2736980   -2.3079708  0.00    0.0063638   -0.0181378   -0.0807965
 H    1.0009142    1.2453605   -2.7736891  0.00   -0.0122680   -0.0015947   -0.0088087
12
 Energy =    -156.9248965466
 C    0.8228604   -0.1220766    0.0848324  0.00   -0.0820358   -0.0484243   -0.0366440
 C   -0.1174086   -0.0478087   -0.8817720  0.00    0.0414971    0.1003733    0.0153772
 H    1.2041591   -1.1051480    0.4097493  0.00    0.0122326    0.0344468    0.0457943
 H    1.2994078    0.7745955    0.5163995  0.00   -0.0095528   -0.0202039   -0.0131672
 H   -0.6201189   -0.9490521   -1.2637918  0.00    0.0399553    0.0133342   -0.0263463
 H   -0.5552766    0.9166966   -1.1922998  0.00    0.0067638   -0.0612718    0.0316551
 C    0.5112797   -0.4570986   -3.9208891  0.00    0.0170321    0.0081410    0.0167633
 C    1.1657071    0.1453735   -2.9039903  0.00   -0.0529149   -0.0024358    0.0285959
 H    0.6716896   -1.5239422   -4.1619637  0.00   -0.0187171    0.0437950    0.0209614
 H   -0.2537055    0.0752548   -4.5150474  0.00    0.0396626   -0.0206749    0.0190604
 H    1.9419905   -0.3640587   -2.3169882  0.00    0.0129287   -0.0180952   -0.0866767
 H    1.0753095    1.2280856   -2.7210998  0.00   -0.0068626   -0.0290010   -0.0153338
12
 Energy =    -156.9253224182
 C    0.7964080   -0.1354326    0.1366700  0.00   -0.0141316   -0.0174104   -0.0661583
 C   -0.0641569   -0.0508824   -0.9016992  0.00    0.0130454    0.0377148   -0.0161883
 H    1.1528261   -1.1182754    0.4899820  0.00    0.0130173    0.0305346    0.0203825
 H    1.2477239    0.7588088    0.6005625  0.00   -0.0363437   -0.0214904    0.0079456
 H   -0.5103354   -0.9507006   -1.3514963  0.00   -0.0057214    0.0269229    0.0475049
 H   -0.4930789    0.9116680   -1.2254245  0.00    0.0121326   -0.0450883    0.0296043
 C    0.4772676   -0.4596093   -3.9124241  0.00    0.0323788    0.0222149    0.0124117
 C    1.1625317    0.1648118   -2.9290765  0.00   -0.0219222    0.0024026   -0.0187282
 H    0.6255807   -1.5326157   -4.1301318  0.00   -0.0203290    0.0324089    0.0221480
 H   -0.3046622    0.0597884   -4.4950634  0.00    0.0406151   -0.0137172    0.0088773
 H    1.9614709   -0.3317994   -2.3632817  0.00    0.0125179   -0.0265761   -0.0561183
 H    1.0943185    1.2550595   -2.7854776  0.00   -0.0252238   -0.0279287    0.0083376
12
 Energy =    -156.9252248558
 C    0.8042083   -0.0823306    0.1595794  0.00   -0.0283616   -0.0222732   -0.0221632
 C   -0.0508383   -0.0745649   -0.8841535  0.00   -0.0051971   -0.1053156    0.0619252
 H    1.2608598   -1.0194000    0.5234472  0.00    0.0213075    0.0315033   -0.0267623
 H    1.1117916    0.8469604    0.6614057  0.00    0.0143636    0.0276585    0.0261138
 H   -0.4097445   -1.0119595   -1.3267732  0.00    0.0066219   -0.0182449   -0.0184059
 H   -0.6191375    0.8238213   -1.1513450  0.00    0.0375223    0.0889164   -0.0924425
 C    0.4669726   -0.4236765   -3.9650607  0.00   -0.0119238    0.0015189   -0.0020357
 C    1.1921173    0.1093370   -2.9641557  0.00   -0.0662905    0.0594544    0.0985966
 H    0.4907794   -1.5021471   -4.1817851  0.00    0.0159922   -0.0321174   -0.0269199
 H   -0.2302854    0.1838594   -4.5610134  0.00   -0.0307627    0.0142859   -0.0132882
 H    1.9276003   -0.4711201   -2.4015480  0.00    0.0509608   -0.0714738    0.0151442
 H    1.2015705    1.1920417   -2.7754584  0.00   -0.0042496    0.0260847    0.0002467
12
 Energy =    -156.9257516331
 C    0.8055793   -0.0806720    0.1478665  0.00   -0.0362384   -0.0150711   -0.0049816
 C   -0.0483920   -0.0902877   -0.8970974  0.00   -0.0156577   -0.0330269    0.0397916
 H    1.2441855   -1.0156613    0.5368237  0.00    0.0185427    0.0255503   -0.0111813
 H    1.1328736    0.8579889    0.6218850  0.00    0.0127138    0.0107656    0.0083275
 H   -0.4260208   -1.0347062   -1.3100069  0.00    0.0101098   -0.0115622   -0.0188686
 H   -0.5837710    0.8156556   -1.2117795  0.00    0.0249132    0.0320552   -0.0386265
 C    0.4627916   -0.4155059   -3.9523923  0.00    0.0021953    0.0005639   -0.0040693
 C    1.1847026    0.1108025   -2.9433430  0.00   -0.0384184    0.0299560    0.0784135
 H    0.5032809   -1.4903045   -4.1908200  0.00    0.0074138   -0.0107350   -0.0130651
 H   -0.2462467    0.1929455   -4.5357697  0.00   -0.0137309    0.0046430   -0.0040018
 H    1.9293185   -0.4715457   -2.3893366  0.00    0.0266460   -0.0439426   -0.0237466
 H    1.1875925    1.1921121   -2.7428905  0.00    0.0014992    0.0107839   -0.0079860
12
 Energy =    -156.9259887216
 C    0.8000844   -0.0674643    0.1376389  0.00   -0.0381945   -0.0044814    0.0074389
 C   -0.0547670   -0.1150421   -0.9061687  0.00    0.0150155    0.0049234    0.0022409
 H    1.2466087   -0.9862146    0.5552375  0.00    0.0112567    0.0213653   -0.0113971
 H    1.1276604    0.8885564    0.5789352  0.00   -0.0004464   -0.0060302    0.0002408
 H   -0.4170880   -1.0748941   -1.3001732  0.00    0.0011258    0.0057558   -0.0006498
 H   -0.5812569    0.7815207   -1.2650851  0.00    0.0133110   -0.0065834    0.0031786
 C    0.4536779   -0.3974214   -3.9378829  0.00    0.0202699    0.0026013    0.0031488
 C    1.1908140    0.1010343   -2.9231497  0.00   -0.0361752    0.0214273    0.0206007
 H    0.4862186   -1.4671433   -4.2044766  0.00   -0.0037431    0.0048072    0.0039334
 H   -0.2600193    0.2291275   -4.4983387  0.00    0.0056599   -0.0028835   -0.0003451
 H    1.9360267   -0.5022582   -2.3908651  0.00    0.0194917   -0.0309103   -0.0309228
 H    1.2179345    1.1810205   -2.7125325  0.00   -0.0076052   -0.0100057    0.0025337
12
 Energy =    -156.9261265665
 C    0.7951671   -0.0513930    0.1497432  0.00   -0.0156391    0.0164639    0.0102207
 C   -0.0404128   -0.1250932   -0.9077897  0.00    0.0008476   -0.0143744    0.0023250
 H    1.2567887   -0.9532646    0.5862864  0.00   -0.0013803    0.0111235   -0.0101557
 H    1.0972992    0.9164010    0.5836017  0.00    0.0043451   -0.0050835   -0.0035382
 H   -0.3863774   -1.0953044   -1.2907583  0.00    0.0017707    0.0040495   -0.0045615
 H   -0.5687085    0.7597081   -1.2904021  0.00   -0.0060371   -0.0054630    0.0179257
 C    0.4461688   -0.3846837   -3.9490404  0.00    0.0136412   -0.0023935   -0.0019680
 C    1.1873377    0.0805064   -2.9216518  0.00   -0.0210296    0.0209802    0.0227555
 H    0.4672294   -1.4477657   -4.2417326  0.00    0.0000712    0.0062949    0.0007352
 H   -0.2599823    0.2628197   -4.4947903  0.00    0.0012810   -0.0024550    0.0032004
 H    1.9313729   -0.5441244   -2.4112885  0.00    0.0111549   -0.0237593   -0.0233659
 H    1.2200112    1.1530150   -2.6790385  0.00    0.0109345   -0.0053898   -0.0135856
12
 Energy =    -156.9263312155
 C    0.7880836    0.0093213    0.1571926  0.00   -0.0150825    0.0333125    0.0113860
 C   -0.0484317   -0.1795134   -0.8849483  0.00    0.0471877   -0.0338833   -0.0022089
 H    1.3430072   -0.8225380    0.6229339  0.00   -0.0053032   -0.0019455   -0.0258634
 H    0.9985164    1.0168695    0.5539400  0.00   -0.0041288   -0.0052809   -0.0023166
 H   -0.3030421   -1.1910878   -1.2316554  0.00   -0.0022365    0.0038639   -0.0139485
 H   -0.6648628    0.6376495   -1.2838477  0.00    0.0091630    0.0129501   -0.0184229
 C    0.4408419   -0.3280424   -3.9794801  0.00   -0.0080510   -0.0058232    0.0309529
 C    1.2020433    0.0203029   -2.9204835  0.00   -0.0209580    0.0086810    0.0060750
 H    0.3686950   -1.3745092   -4.3198318  0.00    0.0001844    0.0041464    0.0000397
 H   -0.1957469    0.4043648   -4.5030418  0.00    0.0045047    0.0000677    0.0003576
 H    1.8837799   -0.6959674   -2.4433041  0.00    0.0032749   -0.0107442    0.0000629
 H    1.3330100    1.0739715   -2.6343346  0.00   -0.0085469   -0.0053549    0.0139119
12
 Energy =    -156.9264156627
 C    0.7843765    0.0016470    0.1479154  0.00    0.0028042    0.0274108    0.0241294
 C   -0.0439888   -0.1705517   -0.9030627  0.00    0.0173455   -0.0258760   -0.0094737
 H    1.3235487   -0.8418739    0.6103087  0.00   -0.0027077   -0.0028053   -0.0147966
 H    1.0092875    1.0036580    0.5502421  0.00   -0.0039926   -0.0030936   -0.0032510
 H   -0.3133759   -1.1761650   -1.2552310  0.00   -0.0017395    0.0026711   -0.0066159
 H   -0.6430647    0.6582046   -1.3048557  0.00   -0.0007813    0.0051571   -0.0051192
 C    0.4358260   -0.3370984   -3.9581661  0.00   -0.0002657   -0.0041674    0.0013759
 C    1.2054352    0.0272281   -2.9110709  0.00   -0.0119550    0.0109961    0.0053370
 H    0.3817578   -1.3842800   -4.2990208  0.00   -0.0027056    0.0015540    0.0019180
 H   -0.2232564    0.3819275   -4.4721206  0.00    0.0026236    0.0009286    0.0009054
 H    1.9094392   -0.6750549   -2.4447185  0.00    0.0006935   -0.0087697   -0.0003494
 H    1.3199089    1.0831799   -2.6270808  0.00    0.0006697   -0.0040317    0.0059869
12
 Energy =    -156.9264354818
 C    0.7732079    0.0594210    0.1524133  0.00    0.0107449    0.0163294    0.0076093
 C   -0.0348986   -0.2218061   -0.8908896  0.00    0.0069269   -0.0118149   -0.0024598
 H    1.3877333   -0.7156675    0.6386877  0.00    0.0024723   -0.0133690   -0.0047055
 H    0.9104053    1.0902073    0.5192462  0.00   -0.0066485    0.0042797   -0.0020234
 H   -0.2248483   -1.2590812   -1.1993639  0.00    0.0036637   -0.0038722   -0.0178964
 H   -0.7051671    0.5380651   -1.3151277  0.00    0.0086767    0.0104261   -0.0223095
 C    0.4286504   -0.2832340   -3.9771367  0.00   -0.0205740   -0.0061933    0.0198048
 C    1.2116882   -0.0299258   -2.9073543  0.00    0.0179506   -0.0113628   -0.0043821
 H    0.2897226   -1.3062015   -4.3629720  0.00   -0.0010872   -0.0052998   -0.0011813
 H   -0.1633620    0.5091338   -4.4634259  0.00    0.0008547    0.0047596   -0.0014947
 H    1.8600302   -0.8093502   -2.4807814  0.00   -0.0149160    0.0124581    0.0111788
 H    1.4127321    0.9992604   -2.5801565  0.00   -0.0080673    0.0036625    0.0178471
12
 Energy =    -156.9264939811
 C    0.7737210    0.0299199    0.1475683  0.00    0.0107317    0.0020413    0.0141012
 C   -0.0284192   -0.1945682   -0.9143324  0.00   -0.0048552    0.0014667   -0.0037799
 H    1.3400164   -0.7860759    0.6259991  0.00    0.0029909    0.0011536   -0.0013533
 H    0.9530684    1.0456884    0.5370524  0.00   -0.0044691    0.0000776   -0.0039775
 H   -0.2567911   -1.2153410   -1.2498726  0.00   -0.0030918   -0.0058193   -0.0012046
 H   -0.6533746    0.6031848   -1.3389105  0.00   -0.0057088    0.0006314    0.0026781
 C    0.4229517   -0.3125923   -3.9515037  0.00   -0.0024981   -0.0026173   -0.0090291
 C    1.2127990    0.0007846   -2.9030350  0.00    0.0159424    0.0009425    0.0007489
 H    0.3238495   -1.3495740   -4.3114234  0.00   -0.0016993   -0.0065973   -0.0019619
 H   -0.2123736    0.4412394   -4.4443088  0.00   -0.0022616    0.0059450   -0.0024321