12
 Energy =    -156.8940366138
 C    0.6614406    0.0000000    0.0000000  0.00    0.2436421   -0.0015144    0.0193174
 C   -0.6614406    0.0000000    0.0000000  0.00   -0.4827959    0.3302189    0.3406100
 H    1.2309190   -0.9231101    0.0000000  0.00    0.1763280   -0.2556924    0.0081321
 H    1.2309190    0.9231101    0.0000000  0.00    0.1700257    0.2592775   -0.0031706
 H   -1.2309190   -0.9231101    0.0000000  0.00   -0.1740525   -0.2572293    0.0055520
 H   -1.2309190    0.9231101    0.0000000  0.00   -0.1754739    0.2488916    0.0093686
 C   -1.9411429    3.2424658    2.2974655  0.00    0.0087726    0.2552878   -0.0078503
 C   -2.0794217    1.9268315    2.2974655  0.00    0.2337667   -0.5625093   -0.3380012
 H   -2.7796078    3.9032072    2.4893909  0.00   -0.2328222    0.2051392    0.0455902
 H   -0.9836246    3.7144418    2.1055401  0.00    0.2722209    0.1439220   -0.0494447
 H   -3.0369399    1.4548555    2.4893909  0.00   -0.2715365   -0.1453934    0.0498086
 H   -1.2409568    1.2660901    2.1055401  0.00    0.2319049   -0.2204026   -0.0798881
12
 Energy =    -156.8912526556
 C    0.6487103    0.0717819    0.0368521  0.00   -0.0668001   -0.9564613   -0.0005181
 C   -0.6676827    0.0081264    0.0234866  0.00   -0.6426271    0.1189043    0.3385555
 H    1.2670980   -0.8232799    0.0309136  0.00    0.1306635   -0.2219383    0.0214839
 H    1.1537027    0.9714268    0.0550066  0.00    0.6772107    1.2351765    0.0016996
 H   -1.1974693   -0.9440429    0.0298947  0.00   -0.1125906   -0.1964642   -0.0201146
 H   -1.2845319    0.8935870    0.0258228  0.00   -0.2195009    0.3252242   -0.0040844
 C   -1.8900599    3.2068256    2.2763080  0.00    0.0925916    0.2629515   -0.0352261
 C   -2.1086403    1.9060320    2.2520615  0.00    0.1444190   -0.6609786   -0.2866431
 H   -2.6485427    3.9032530    2.5965402  0.00   -0.3075429    0.3131930    0.0098575
 H   -0.9349510    3.6105149    1.9669493  0.00    0.3363684    0.1794657    0.0177333
 H   -3.0931513    1.4929973    2.4586759  0.00   -0.2019642   -0.1448368    0.1416235
 H   -1.3061758    1.2106698    2.0322815  0.00    0.1697873   -0.2542956   -0.1844264
12
 Energy =    -156.8929327287
 C    0.6011399    0.2109657    0.0728191  0.00    0.0267895   -0.9345225   -0.0195672
 C   -0.6960773   -0.0290529    0.0637297  0.00   -0.5923188    0.0793352    0.3243404
 H    1.3333390   -0.5931008    0.0449483  0.00    0.1611284   -0.2036422    0.0529212
 H    0.9816753    1.1710719    0.1012657  0.00    0.4904637    1.2878259   -0.0140823
 H   -1.0955660   -1.0423974    0.0932398  0.00   -0.0815330   -0.2140029   -0.0560368
 H   -1.4240171    0.7691198    0.0592031  0.00   -0.2335204    0.2723509    0.0036544
 C   -1.7622839    3.1331676    2.2413820  0.00    0.1388013    0.2385884   -0.0409008
 C   -2.1634228    1.8780801    2.2061165  0.00    0.0698805   -0.6693159   -0.2374150
 H   -2.4232542    3.9306259    2.5353097  0.00   -0.2778822    0.3770870    0.0130564
 H   -0.7499533    3.3947624    1.9687633  0.00    0.3846225    0.1343329    0.0140613
 H   -3.2011904    1.6099414    2.3870469  0.00   -0.2360997   -0.1118234    0.1279162
 H   -1.4620828    1.0747083    2.0109689  0.00    0.1496875   -0.2562380   -0.1679387
12
 Energy =    -156.8923900225
 C    0.5798795    0.2592692    0.0878022  0.00    0.1110572   -1.0235918    0.0722284
 C   -0.7011868   -0.0482277    0.0765315  0.00   -0.5997184   -0.0392899    0.2071697
 H    1.3557265   -0.5052265    0.1209758  0.00    0.1464277   -0.1733096   -0.0228730
 H    0.9074148    1.2344086    0.0711080  0.00    0.4547893    1.4126687    0.0161217
 H   -1.0457079   -1.0832223    0.0369976  0.00   -0.0614130   -0.1874022    0.0607264
 H   -1.4685299    0.7079442    0.0683695  0.00   -0.2843099    0.3014118   -0.0415935
 C   -1.7177843    3.1098962    2.2345167  0.00    0.1379006    0.2019710   -0.0456735
 C   -2.1838763    1.8731353    2.2124072  0.00    0.0516936   -0.5569720   -0.2528258
 H   -2.3376162    3.9467007    2.5276898  0.00   -0.2069781    0.3201232   -0.0292202
 H   -0.6914119    3.3169252    1.9476092  0.00    0.3122205    0.0933823    0.0559906
 H   -3.2404126    1.6593630    2.3728838  0.00   -0.1884463   -0.0887704    0.1505133
 H   -1.5181886    1.0369260    2.0279016  0.00    0.1267726   -0.2602248   -0.1705512
12
 Energy =    -156.8960575246
 C    0.4928293    0.4191328    0.1451007  0.00    0.2670157   -0.8808615    0.1294202
 C   -0.7280109   -0.0777403    0.1266377  0.00   -0.5032291   -0.1301239    0.0800306
 H    1.3750026   -0.2198813    0.2070778  0.00    0.1553263   -0.1344838   -0.0418406
 H    0.6701690    1.4368391    0.1045245  0.00    0.2123418    1.3485446    0.0246450
 H   -0.9141910   -1.1521166    0.0543303  0.00   -0.0298876   -0.1792316    0.1158681
 H   -1.5947180    0.5605159    0.0920367  0.00   -0.3246386    0.2462565   -0.0659857
 C   -1.5740554    3.0022338    2.1885078  0.00    0.1593061    0.1450080   -0.0600021
 C   -2.2203582    1.8462882    2.1716907  0.00    0.0133706   -0.4362669   -0.2132027
 H   -2.0744309    3.9335787    2.4347724  0.00   -0.1245323    0.2864491   -0.0513235
 H   -0.5139664    3.0470341    1.9433868  0.00    0.2625593    0.0332578    0.0722961
 H   -3.3040140    1.7926611    2.2924301  0.00   -0.1731358   -0.0465398    0.1385805
 H   -1.6759499    0.9193464    2.0242974  0.00    0.0855355   -0.2520249   -0.1285175
12
 Energy =    -156.8998545809
 C    0.4319275    0.5118439    0.1860418  0.00    0.2960753   -0.7218378    0.1470916
 C   -0.7454970   -0.0841954    0.1447765  0.00   -0.4087819   -0.1170196    0.0468829
 H    1.3620987   -0.0534383    0.2690309  0.00    0.1600294   -0.1123396   -0.0334430
 H    0.5255335    1.5481475    0.1472564  0.00    0.0842633    1.1818355    0.0157664
 H   -0.8468717   -1.1708671    0.0824976  0.00   -0.0151454   -0.1674196    0.1040240
 H   -1.6554917    0.4916508    0.0847855  0.00   -0.3208735    0.1817356   -0.0771766
 C   -1.4924533    2.9295259    2.1523660  0.00    0.1651145    0.1220419   -0.0711869
 C   -2.2280681    1.8273469    2.1457303  0.00    0.0026846   -0.3815174   -0.1787987
 H   -1.9220018    3.9038033    2.3691103  0.00   -0.0945147    0.2768315   -0.0534843
 H   -0.4268111    2.8863044    1.9287201  0.00    0.2452891    0.0102602    0.0745537
 H   -3.3144168    1.8563852    2.2544721  0.00   -0.1656859   -0.0250703    0.1271111
 H   -1.7496419    0.8613847    2.0200053  0.00    0.0515640   -0.2475925   -0.1013827
12
 Energy =    -156.9012222161
 C    0.3639209    0.6082583    0.2366502  0.00    0.4254546   -1.0180593    0.1906110
 C   -0.7601467   -0.0775172    0.1587867  0.00   -0.3612273   -0.2394307    0.0097060
 H    1.3353269    0.1196834    0.3595138  0.00    0.1264987   -0.0914533   -0.0405433
 H    0.3779232    1.6331247    0.1853430  0.00   -0.0049326    1.5233583   -0.0172543
 H   -0.7774715   -1.1714426    0.1013817  0.00   -0.0066266   -0.1255655    0.1105573
 H   -1.7072379    0.4298064    0.0720556  0.00   -0.3444933    0.1494592   -0.1122582
 C   -1.4136019    2.8519162    2.1071825  0.00    0.1600300    0.0816314   -0.0749473
 C   -2.2329099    1.8074512    2.1206068  0.00    0.0096022   -0.2813005   -0.1280025
 H   -1.7658062    3.8625219    2.3101505  0.00   -0.0561125    0.2386912   -0.0687977
 H   -0.3523607    2.7168426    1.8857313  0.00    0.1861176    0.0112211    0.0951079
 H   -3.3163765    1.9167324    2.2320610  0.00   -0.1200014   -0.0192742    0.1185514
 H   -1.8129534    0.8105146    2.0153297  0.00   -0.0143298   -0.2292266   -0.0826497
12
 Energy =    -156.9047386385
 C    0.2043099    0.7999229    0.3319063  0.00    0.6154891   -0.8971706    0.1403539
 C   -0.7872946   -0.0645888    0.2036346  0.00   -0.1640209   -0.3016104   -0.1087316
 H    1.2381858    0.4797640    0.5097721  0.00    0.1074189   -0.0622896   -0.0364781
 H    0.0495409    1.8153956    0.2592306  0.00   -0.2012196    1.2855053   -0.1591728
 H   -0.6285860   -1.1496570    0.1624770  0.00   -0.0042372   -0.0845295    0.1188261
 H   -1.7939527    0.2992069    0.0505798  0.00   -0.3211758    0.0324498   -0.1370346
 C   -1.2484835    2.6787975    2.0274908  0.00    0.1204635    0.1005282    0.0081357
 C   -2.2208398    1.7715404    2.0660396  0.00   -0.0054834   -0.0920715   -0.0311208
 H   -1.4470724    3.7464404    2.1508569  0.00   -0.0159006    0.1783308   -0.0619651
 H   -0.2097568    2.3684794    1.8725175  0.00    0.0552926    0.0412493    0.1921803
 H   -3.2818643    2.0411592    2.1317946  0.00   -0.0810462   -0.0033932    0.0917966
 H   -1.9358801    0.7214315    2.0184928  0.00   -0.1056878   -0.1971054   -0.0167514
12
 Energy =    -156.9107617820
 C    0.1562210    0.8647280    0.2732237  0.00    0.3328427   -0.5145387    0.0781343
 C   -0.7893727   -0.0726495    0.2248923  0.00   -0.0165969   -0.0415309   -0.0621685
 H    1.2114220    0.6156110    0.4533902  0.00    0.0695284   -0.0210798    0.0171841
 H   -0.0654977    1.8836120    0.0840133  0.00   -0.1457052    0.6727067   -0.1193279
 H   -0.5774404   -1.1453445    0.3293458  0.00   -0.0035242   -0.0463524    0.0665955
 H   -1.8139612    0.2310464    0.0132143  0.00   -0.2053048   -0.0602820   -0.0755502
 C   -1.1915131    2.6156584    2.0810068  0.00    0.0345379    0.0628545    0.0288084
 C   -2.2180339    1.7676297    2.0158571  0.00   -0.0105434   -0.0311474    0.1077314
 H   -1.3341435    3.7021238    2.0694332  0.00   -0.0018889    0.1226132    0.0564967
 H   -0.1661256    2.2492651    2.1967692  0.00    0.0971989   -0.0059319   -0.0633977
 H   -3.2643088    2.0987935    2.0496740  0.00   -0.0658922    0.0210354   -0.1108095
 H   -2.0089397    0.6974180    1.9939728  0.00   -0.0846014   -0.1582527    0.0762875
12
 Energy =    -156.9131730775
 C    0.0963241    0.9358647    0.2105935  0.00    0.1265830   -0.2546460    0.0246793
 C   -0.7900109   -0.0704648    0.2306676  0.00    0.0679973    0.1313615    0.0418036
 H    1.1653616    0.7770913    0.4414222  0.00   -0.0335799    0.0165986    0.0255999
 H   -0.2000066    1.9413454   -0.0806673  0.00   -0.0256111    0.1666092   -0.0798162
 H   -0.5297261   -1.0927363    0.5507803  0.00   -0.0035878   -0.0024465   -0.0604067
 H   -1.8345695    0.1455419   -0.0271629  0.00   -0.0731144   -0.1079867   -0.0371084
 C   -1.1292870    2.5385655    2.1444102  0.00   -0.1101766    0.0294654    0.0460801
 C   -2.2134197    1.7555778    2.0196874  0.00    0.1738697    0.1295655   -0.0556770
 H   -1.1957083    3.6440707    2.1242593  0.00    0.0085205   -0.0726675   -0.0099184
 H   -0.1274576    2.1078556    2.3177111  0.00   -0.0482415    0.0248813   -0.0126448
 H   -3.2234738    2.1577468    1.8291727  0.00    0.0177834   -0.0090820    0.0668835
 H   -2.0797200    0.6674333    2.0239188  0.00   -0.1004257   -0.0516288    0.0505698
12
 Energy =    -156.9137873242
 C    0.1655327    0.8733036    0.2124197  0.00   -0.0246850   -0.0380233    0.0400853
 C   -0.7860186   -0.0740788    0.2029532  0.00    0.0362824    0.1491065    0.0413971
 H    1.2165254    0.6420957    0.4624610  0.00   -0.0249933    0.0107642   -0.0048955
 H   -0.0658672    1.9179631   -0.0443931  0.00    0.0156858   -0.0235796   -0.0280340
 H   -0.5768829   -1.1253011    0.4615049  0.00   -0.0073053    0.0052133   -0.0169055
 H   -1.8218990    0.1939898   -0.0542056  0.00   -0.0124565   -0.0701362   -0.0360719
 C   -1.1834201    2.5996257    2.1329904  0.00   -0.0126177   -0.0029936   -0.0463956
 C   -2.2278137    1.7624548    2.0480257  0.00    0.1154653    0.0345124   -0.0056789
 H   -1.3089641    3.6979967    2.1438112  0.00   -0.0007556   -0.0403948    0.0159178
 H   -0.1478559    2.2233381    2.1971536  0.00   -0.0469320    0.0076759    0.0078575
 H   -3.2710203    2.1181380    1.9958861  0.00    0.0195314   -0.0017171    0.0055150
 H   -2.0540099    0.6783664    2.0261857  0.00   -0.0572054   -0.0303037    0.0273042
12
 Energy =    -156.9141743836
 C    0.1258987    0.9280951    0.2201215  0.00   -0.0045595   -0.0793309   -0.0262310
 C   -0.7899386   -0.0545265    0.2208321  0.00    0.0840243    0.0533001    0.0090178
 H    1.1717764    0.7548267    0.5380086  0.00   -0.0524612    0.0026416   -0.0334452
 H   -0.1178309    1.9349932   -0.1509315  0.00    0.0081076   -0.0008893    0.0351220
 H   -0.5452082   -1.0843927    0.5376511  0.00   -0.0265696    0.0430780    0.0074830
 H   -1.8290966    0.1465541   -0.0867132  0.00    0.0306412   -0.0550814   -0.0500905
 C   -1.1448629    2.5442723    2.1213708  0.00   -0.0492873   -0.0130925   -0.0029319
 C   -2.2249066    1.7524458    2.0253120  0.00    0.0895312    0.0886334    0.0923628
 H   -1.2216011    3.6489748    2.1282171  0.00   -0.0038617   -0.0703767    0.0119422
 H   -0.1293656    2.1216513    2.2263306  0.00   -0.0654624    0.0299034   -0.0307597
 H   -3.2527219    2.1569719    1.9794145  0.00    0.0503047   -0.0195274   -0.0199603
 H   -2.1038365    0.6580260    2.0251793  0.00   -0.0603707    0.0207678    0.0075133
12
 Energy =    -156.9143988008
 C    0.1445808    0.9128933    0.2179683  0.00   -0.0261266   -0.0055954   -0.0435283
 C   -0.7936885   -0.0470485    0.2132846  0.00    0.0699593    0.0339811    0.0472927
 H    1.1821918    0.7147525    0.5436218  0.00   -0.0353806    0.0033081   -0.0182204
 H   -0.0722285    1.9296633   -0.1518070  0.00    0.0144411   -0.0491049    0.0318172
 H   -0.5766964   -1.0764487    0.5497917  0.00   -0.0149860    0.0296042   -0.0059878
 H   -1.8255544    0.1659513   -0.1060992  0.00    0.0163925   -0.0308543   -0.0536353
 C   -1.1584825    2.5582697    2.1168319  0.00   -0.0293396   -0.0164572   -0.0014860
 C   -2.2226797    1.7456345    2.0385512  0.00    0.0564635    0.0735685    0.0557967
 H   -1.2597002    3.6592006    2.1513703  0.00   -0.0036831   -0.0510076   -0.0037414
 H   -0.1320350    2.1578533    2.1755946  0.00   -0.0439779    0.0146688   -0.0066376
 H   -3.2566197    2.1338933    2.0121639  0.00    0.0336031   -0.0137234   -0.0002147
 H   -2.0907812    0.6532771    2.0235207  0.00   -0.0373191    0.0116625   -0.0013977
12
 Energy =    -156.9145709770
 C    0.1597381    0.9074464    0.2131481  0.00   -0.0275852    0.0434466   -0.0492062
 C   -0.7989502   -0.0305035    0.2085989  0.00    0.0569232   -0.0096852    0.0776381
 H    1.1814432    0.6961626    0.5756610  0.00   -0.0234990   -0.0002797   -0.0140405
 H   -0.0226234    1.9221705   -0.1845932  0.00    0.0120986   -0.0715148    0.0289996
 H   -0.6139895   -1.0507644    0.5898441  0.00   -0.0050399    0.0249568   -0.0181021
 H   -1.8183186    0.1822775   -0.1454481  0.00    0.0066984   -0.0023338   -0.0582664
 C   -1.1668452    2.5600572    2.1103733  0.00   -0.0116860   -0.0191683   -0.0114619
 C   -2.2199694    1.7333267    2.0509574  0.00    0.0136039    0.0713153    0.0485317
 H   -1.2848829    3.6574970    2.1691606  0.00   -0.0043103   -0.0394508   -0.0054248
 H   -0.1333509    2.1761673    2.1187486  0.00   -0.0328775    0.0082728    0.0065303
 H   -3.2576343    2.1120454    2.0611892  0.00    0.0279018   -0.0128438    0.0065301
 H   -2.0863105    0.6420091    2.0171530  0.00   -0.0121850    0.0073135   -0.0116553
12
 Energy =    -156.9147543473
 C    0.1829894    0.8951030    0.2081283  0.00   -0.0121833    0.0798316   -0.0534303
 C   -0.8053872   -0.0094204    0.2055553  0.00    0.0224188   -0.0496512    0.0956376
 H    1.1831124    0.6635994    0.6124187  0.00   -0.0084541   -0.0032944   -0.0028397
 H    0.0502898    1.9025668   -0.2272074  0.00    0.0029622   -0.0748725    0.0237644
 H   -0.6664888   -1.0184507    0.6331318  0.00    0.0068141    0.0172330   -0.0212981
 H   -1.8051318    0.2090891   -0.1953437  0.00   -0.0005631    0.0246565   -0.0569014
 C   -1.1824757    2.5678270    2.1008784  0.00    0.0098320   -0.0186423   -0.0182011
 C   -2.2171113    1.7191521    2.0677816  0.00   -0.0343263    0.0523640    0.0424594
 H   -1.3249727    3.6584374    2.1962782  0.00   -0.0045901   -0.0186768   -0.0060518
 H   -0.1422871    2.2105810    2.0433742  0.00   -0.0133652   -0.0013651    0.0113483
 H   -3.2590128    2.0787203    2.1348255  0.00    0.0173655   -0.0090544    0.0094804
 H   -2.0752180    0.6306868    2.0049718  0.00    0.0141321    0.0014926   -0.0239100
12
 Energy =    -156.9151780678
 C    0.2362537    0.8620574    0.1987510  0.00    0.0351104    0.0913724   -0.0382230
 C   -0.8196026    0.0405151    0.2027090  0.00   -0.0704027   -0.0817283    0.0954177
 H    1.1799269    0.5950877    0.6999515  0.00    0.0131005   -0.0077078    0.0183201
 H    0.2208188    1.8332335   -0.3254551  0.00   -0.0136411   -0.0429680    0.0010373
 H   -0.7918832   -0.9322197    0.7234452  0.00    0.0263635   -0.0044010   -0.0150116
 H   -1.7656410    0.2737445   -0.3066286  0.00    0.0064593    0.0555434   -0.0379609
 C   -1.2229644    2.5880108    2.0764782  0.00    0.0398131    0.0012709   -0.0315823
 C   -2.2103919    1.6891362    2.1041040  0.00   -0.0942677   -0.0160594    0.0489465
 H   -1.4113026    3.6571936    2.2620972  0.00   -0.0052290    0.0211701   -0.0008421
 H   -0.1840875    2.2966618    1.8670442  0.00    0.0249528   -0.0163124    0.0007627
 H   -3.2497014    1.9928728    2.3145223  0.00   -0.0085337    0.0009249    0.0111366
 H   -2.0431185    0.6115982    1.9677738  0.00    0.0463590   -0.0010674   -0.0520494
12
 Energy =    -156.9152504960
 C    0.2964958    0.8083389    0.1923900  0.00    0.0940605    0.1032387   -0.0226740
 C   -0.8398007    0.1064387    0.1922056  0.00   -0.1749978   -0.1236384    0.1008064
 H    1.1606555    0.5051846    0.8002678  0.00    0.0298156   -0.0096569    0.0483233
 H    0.4305234    1.7152659   -0.4182043  0.00   -0.0209144   -0.0099291   -0.0338570
 H   -0.9551611   -0.8023583    0.8057999  0.00    0.0508182   -0.0342367   -0.0185373
 H   -1.7127392    0.3505548   -0.4310807  0.00    0.0103555    0.0922631   -0.0168211
 C   -1.2802691    2.6231351    2.0477085  0.00    0.0702704    0.0300777   -0.0552124
 C   -2.1867019    1.6518008    2.1449407  0.00   -0.1617254   -0.1288427    0.0753239
 H   -1.5201484    3.6551258    2.3376227  0.00   -0.0093154    0.0695534    0.0081302
 H   -0.2703572    2.4331365    1.6649699  0.00    0.0781998   -0.0273095   -0.0201877
 H   -3.1997493    1.8669393    2.5206515  0.00   -0.0367324    0.0124295    0.0175188
 H   -1.9844415    0.5943298    1.9275210  0.00    0.0701213    0.0259411   -0.0829039
12
 Energy =    -156.9154169093
 C    0.2451658    0.8615576    0.1991498  0.00    0.0223814    0.0249373    0.0078829
 C   -0.8192157    0.0489943    0.2120154  0.00   -0.0655572   -0.0450123    0.0152414
 H    1.1824186    0.5970695    0.7148129  0.00    0.0092075   -0.0079480    0.0062868
 H    0.2401032    1.8194502   -0.3432630  0.00   -0.0134450    0.0036762   -0.0106670
 H   -0.7981076   -0.9258486    0.7271894  0.00    0.0127403   -0.0012371    0.0124207
 H   -1.7540077    0.2886938   -0.3199125  0.00    0.0278633    0.0306448   -0.0051149
 C   -1.2293434    2.5844783    2.0697122  0.00    0.0129559    0.0071497   -0.0235786
 C   -2.2201014    1.6884360    2.1144260  0.00   -0.0383664   -0.0011362    0.0359920
 H   -1.4104353    3.6540082    2.2642486  0.00   -0.0000171    0.0126159    0.0053706
 H   -0.1955770    2.2889202    1.8368140  0.00    0.0054080   -0.0091325   -0.0043052
 H   -3.2549678    1.9874696    2.3517740  0.00   -0.0023428    0.0014320    0.0067527
 H   -2.0476254    0.6146627    1.9578260  0.00    0.0292574   -0.0159281   -0.0463105
12
 Energy =    -156.9157809657
 C    0.2895680    0.8258331    0.1992658  0.00    0.0278176    0.0073099    0.0293318
 C   -0.8290959    0.0896689    0.2127831  0.00   -0.1022733   -0.0358593   -0.0260860
 H    1.1793026    0.5349918    0.7786891  0.00    0.0193279   -0.0042015    0.0206272
 H    0.3767609    1.7407707   -0.4036432  0.00   -0.0104696    0.0323859   -0.0281257
 H   -0.8951347   -0.8534339    0.7776866  0.00    0.0131801   -0.0167827    0.0227830
 H   -1.7124621    0.3467419   -0.3964301  0.00    0.0317101    0.0307739    0.0316084
 C   -1.2723879    2.6085519    2.0448018  0.00    0.0134407    0.0239951   -0.0160801
 C   -2.2157358    1.6690382    2.1439843  0.00   -0.0305743   -0.0648517    0.0297118
 H   -1.4746252    3.6544224    2.3207845  0.00   -0.0015852    0.0400821    0.0064609
 H   -0.2621343    2.3715621    1.6838277  0.00    0.0352497   -0.0169564   -0.0187234
 H   -3.2281974    1.9074295    2.5071651  0.00   -0.0232187    0.0092380    0.0077877
 H   -2.0175520    0.6123151    1.9158780  0.00    0.0274120   -0.0051488   -0.0594385
12
 Energy =    -156.9159907116
 C    0.3185445    0.7978378    0.2090201  0.00    0.0020047   -0.0156030    0.0419800
 C   -0.8394904    0.1227847    0.2139068  0.00   -0.0802078   -0.0131189   -0.0599021
 H    1.1607225    0.5028445    0.8527539  0.00    0.0251823    0.0016004    0.0247391
 H    0.4793328    1.6643652   -0.4466872  0.00    0.0041617    0.0430574   -0.0362841
 H   -0.9807727   -0.7789316    0.8278297  0.00    0.0098017   -0.0347360    0.0111095
 H   -1.6692820    0.3874190   -0.4654237  0.00    0.0216445    0.0128146    0.0626498
 C   -1.3064148    2.6261500    2.0212990  0.00    0.0006411    0.0402408   -0.0090697
 C   -2.2059056    1.6510295    2.1641638  0.00   -0.0009566   -0.1149750    0.0105557
 H   -1.5074743    3.6469522    2.3767556  0.00   -0.0017977    0.0563297    0.0127649
 H   -0.3381935    2.4404198    1.5380010  0.00    0.0555755   -0.0132122   -0.0260265
 H   -3.1804815    1.8287651    2.6433555  0.00   -0.0393572    0.0128971    0.0149365
 H   -1.9922787    0.6182556    1.8498182  0.00    0.0032626    0.0245641   -0.0475482
12
 Energy =    -156.9160053432
 C    0.2552479    0.8512211    0.2282310  0.00   -0.0099987    0.0010564    0.0116552
 C   -0.8216355    0.0504731    0.2227931  0.00    0.0034408    0.0302421   -0.0252966
 H    1.1646495    0.5976435    0.7969682  0.00    0.0103049    0.0021531   -0.0052737
 H    0.2772777    1.7833724   -0.3581208  0.00    0.0140183   -0.0056315   -0.0003993
 H   -0.8322191   -0.9091943    0.7632155  0.00   -0.0156819   -0.0109690    0.0146288
 H   -1.7142308    0.3040135   -0.3709534  0.00   -0.0007422   -0.0264569    0.0083387
 C   -1.2462875    2.5956958    2.0405344  0.00   -0.0258304    0.0091098    0.0153258
 C   -2.2255277    1.6884049    2.1180218  0.00    0.0455249   -0.0185412    0.0073354
 H   -1.3989308    3.6443314    2.3433639  0.00   -0.0018163    0.0108237    0.0071980
 H   -0.2459894    2.3180324    1.6756507  0.00    0.0103675   -0.0009579   -0.0148124
 H   -3.2306718    1.9448988    2.4895313  0.00   -0.0130839   -0.0004283    0.0036709
 H   -2.0433761    0.6389992    1.8355571  0.00   -0.0164490    0.0097083   -0.0224109
12
 Energy =    -156.9164282945
 C    0.2886690    0.8094664    0.2434617  0.00   -0.0173078   -0.0195998   -0.0100347
 C   -0.8363610    0.0756252    0.2248665  0.00    0.0284143    0.0448828   -0.0204498
 H    1.1467594    0.5415731    0.8804591  0.00    0.0074451    0.0121828    0.0057478
 H    0.4046495    1.6878480   -0.4107471  0.00    0.0156457    0.0114683    0.0096776
 H   -0.9315901   -0.8485160    0.8156644  0.00   -0.0223893   -0.0098985    0.0081722
 H   -1.6681371    0.3383786   -0.4478624  0.00   -0.0196883   -0.0322908    0.0230669
 C   -1.2904140    2.6376447    2.0203871  0.00   -0.0207874   -0.0058968    0.0049628
 C   -2.2079075    1.6725087    2.1361986  0.00    0.0349483   -0.0331355   -0.0009264
 H   -1.4474318    3.6453994    2.4373172  0.00    0.0008188    0.0134273    0.0030938
 H   -0.3406187    2.4459255    1.4973557  0.00    0.0268947   -0.0014641   -0.0115217
 H   -3.1663954    1.8374733    2.6536624  0.00   -0.0182517    0.0004305    0.0036748
 H   -2.0129158    0.6645650    1.7340297  0.00   -0.0157816    0.0198557   -0.0154919
12
 Energy =    -156.9165146245
 C    0.2817804    0.8110139    0.2500878  0.00   -0.0186228   -0.0130030   -0.0209125
 C   -0.8407424    0.0722488    0.2268939  0.00    0.0464166    0.0388044    0.0045718
 H    1.1290772    0.5626404    0.9095810  0.00    0.0025904    0.0066683   -0.0021636
 H    0.4045869    1.6785658   -0.4183143  0.00    0.0156439    0.0004482    0.0127390
 H   -0.9431880   -0.8383081    0.8385599  0.00   -0.0184569   -0.0051414   -0.0065827
 H   -1.6651036    0.3198825   -0.4598625  0.00   -0.0194549   -0.0333082    0.0097363
 C   -1.2858947    2.6394391    2.0196152  0.00   -0.0116375   -0.0107909    0.0016940
 C   -2.2002548    1.6698989    2.1263730  0.00    0.0165031   -0.0003926    0.0119341
 H   -1.4320776    3.6354360    2.4694109  0.00    0.0019732   -0.0008073   -0.0027685
 H   -0.3471154    2.4611864    1.4691305  0.00    0.0082117    0.0056011    0.0012406
 H   -3.1493087    1.8191943    2.6673028  0.00   -0.0075676   -0.0024366    0.0005086
 H   -2.0134529    0.6766939    1.6860148  0.00   -0.0156385    0.0143315   -0.0100113
12
 Energy =    -156.9165712878
 C    0.2806014    0.8107426    0.2464592  0.00   -0.0162554    0.0026762   -0.0211853
 C   -0.8416171    0.0709227    0.2322940  0.00    0.0408179    0.0169270    0.0168793
 H    1.1265009    0.5743092    0.9124220  0.00   -0.0014548   -0.0011047   -0.0051873
 H    0.4049542    1.6737283   -0.4285912  0.00    0.0073719   -0.0104991    0.0119298
 H   -0.9440556   -0.8318560    0.8567352  0.00   -0.0081766    0.0023814   -0.0120177
 H   -1.6701162    0.3029325   -0.4548195  0.00   -0.0086457   -0.0207126   -0.0013460
 C   -1.2825254    2.6396011    2.0254552  0.00    0.0001574   -0.0147857   -0.0092976
 C   -2.1987937    1.6702258    2.1170246  0.00   -0.0104543    0.0197895    0.0255863
 H   -1.4242479    3.6281123    2.4937086  0.00    0.0019901   -0.0064468   -0.0042536
 H   -0.3452808    2.4697508    1.4668829  0.00   -0.0071621    0.0066575    0.0120606
 H   -3.1474602    1.8131214    2.6626104  0.00    0.0095417   -0.0042905   -0.0052509
 H   -2.0196533    0.6863013    1.6546114  0.00   -0.0077579    0.0093602   -0.0079452
12
 Energy =    -156.9166045344
 C    0.2813008    0.8134359    0.2377575  0.00   -0.0040157    0.0052142   -0.0100701
 C   -0.8376693    0.0689833    0.2416689  0.00    0.0235312    0.0008093    0.0122944
 H    1.1389649    0.5795524    0.8900424  0.00   -0.0079976   -0.0026738   -0.0057499
 H    0.3946380    1.6789708   -0.4358295  0.00   -0.0013636   -0.0121299    0.0069583
 H   -0.9273489   -0.8358023    0.8657289  0.00   -0.0006417    0.0087288   -0.0054585
 H   -1.6797884    0.2915781   -0.4316831  0.00   -0.0006569   -0.0097944   -0.0105177
 C   -1.2794316    2.6355328    2.0334754  0.00    0.0048214   -0.0083819    0.0000271
 C   -2.2068611    1.6751039    2.1082706  0.00   -0.0056307    0.0283484    0.0175391
 H   -1.4169971    3.6237618    2.5047523  0.00    0.0007352   -0.0142850   -0.0064426
 H   -0.3338604    2.4589645    1.4901807  0.00   -0.0176124    0.0054217    0.0115210
 H   -3.1622897    1.8245290    2.6402536  0.00    0.0116660   -0.0035532   -0.0038899
 H   -2.0323508    0.6932817    1.6401751  0.00   -0.0028575    0.0022150   -0.0062542
12
 Energy =    -156.9166149115
 C    0.2865371    0.8068771    0.2340233  0.00    0.0014170    0.0038707   -0.0080782
 C   -0.8400998    0.0740081    0.2481200  0.00    0.0197403   -0.0065822    0.0099510
 H    1.1384209    0.5777127    0.8956577  0.00   -0.0096079   -0.0030983   -0.0066794
 H    0.4124466    1.6588099   -0.4546199  0.00   -0.0059780   -0.0106215    0.0076466
 H   -0.9409607   -0.8193968    0.8867513  0.00    0.0050836    0.0094293   -0.0073946
 H   -1.6768437    0.2894506   -0.4341367  0.00    0.0000749   -0.0075669   -0.0128107
 C   -1.2841423    2.6402623    2.0363143  0.00    0.0016895   -0.0079606    0.0021418
 C   -2.2054136    1.6732505    2.1042276  0.00   -0.0050764    0.0300554    0.0146819
 H   -1.4195313    3.6176632    2.5304914  0.00    0.0015223   -0.0169143   -0.0079899
 H   -0.3460426    2.4806045    1.4747197  0.00   -0.0171548    0.0038664    0.0131389
 H   -3.1536459    1.8048880    2.6535470  0.00    0.0102560   -0.0012531   -0.0043884
 H   -2.0324183    0.7037618    1.6096971  0.00   -0.0019802    0.0066616   -0.0002769
12
 Energy =    -156.9166209918
 C    0.2853005    0.8088657    0.2301930  0.00    0.0038721    0.0030249   -0.0031105
 C   -0.8381309    0.0713538    0.2507376  0.00    0.0154956   -0.0060854    0.0089379
 H    1.1423587    0.5820810    0.8861605  0.00   -0.0099410   -0.0032090   -0.0069141
 H    0.4033054    1.6627090   -0.4575861  0.00   -0.0055393   -0.0111443    0.0072417
 H   -0.9318603   -0.8233063    0.8888369  0.00    0.0046606    0.0125827   -0.0067649
 H   -1.6797524    0.2844301   -0.4259732  0.00    0.0003177   -0.0080367   -0.0153361
 C   -1.2812552    2.6378560    2.0409320  0.00   -0.0082135   -0.0106594    0.0006703
 C   -2.2088403    1.6760687    2.1004980  0.00   -0.0001044    0.0237241    0.0157423
 H   -1.4164144    3.6167773    2.5322951  0.00    0.0010615   -0.0157083   -0.0062098
 H   -0.3380891    2.4728732    1.4896707  0.00   -0.0147130    0.0028551    0.0083228
 H   -3.1618040    1.8135027    2.6403573  0.00    0.0154075   -0.0021716   -0.0054758
 H   -2.0365116    0.7046807    1.6086710  0.00   -0.0023190    0.0147036    0.0028349
12
 Energy =    -156.9166196172
 C    0.2877362    0.8051916    0.2290189  0.00   -0.0019159    0.0032586    0.0027947
 C   -0.8389510    0.0726679    0.2501657  0.00    0.0180533   -0.0079717    0.0052876
 H    1.1421070    0.5771260    0.8880943  0.00   -0.0070777   -0.0015877   -0.0084324
 H    0.4096960    1.6564906   -0.4609598  0.00   -0.0048924   -0.0059650    0.0059462
 H   -0.9366440   -0.8203210    0.8896556  0.00    0.0048809    0.0114725   -0.0070264
 H   -1.6772845    0.2871589   -0.4300731  0.00   -0.0023398   -0.0095593   -0.0110151
 C   -1.2842234    2.6410550    2.0408697  0.00   -0.0079233   -0.0156180    0.0068882
 C   -2.2080517    1.6757314    2.1021196  0.00   -0.0000968    0.0202748    0.0088669
 H   -1.4211835    3.6181526    2.5353010  0.00    0.0020002   -0.0130480   -0.0069808
 H   -0.3426051    2.4809110    1.4857520  0.00   -0.0105955    0.0005103    0.0079442