12
 Energy =    -156.8605944045
 C    0.6614406    0.0000000    0.0000000  0.00    0.2458447   -0.0027287   -0.0101755
 C   -0.6614406    0.0000000    0.0000000  0.00   -0.6915142   -0.0461812   -0.4756511
 H    1.2309190   -0.9231101    0.0000000  0.00    0.1720964   -0.2560413    0.0005230
 H    1.2309190    0.9231101    0.0000000  0.00    0.1721796    0.2562118    0.0001534
 H   -1.2309190   -0.9231101    0.0000000  0.00   -0.1853161   -0.2502382   -0.0147797
 H   -1.2309190    0.9231101    0.0000000  0.00   -0.1830711    0.2501153   -0.0080956
 C   -3.4049261   -0.3459088   -2.8897688  0.00    0.5058744   -0.0733090    0.6019992
 C   -3.9666132    0.3459088   -3.8674756  0.00   -0.1167514    0.1279289   -0.1857240
 H   -3.8254081   -1.2827688   -2.5405892  0.00   -0.1089628   -0.2672726    0.1091892
 H   -2.5008504   -0.0046809   -2.3971752  0.00    0.3365134    0.0815630    0.2392061
 H   -4.8706890    0.0046809   -4.3600691  0.00   -0.2587819   -0.0873247   -0.1495023
 H   -3.5461312    1.2827688   -4.2166551  0.00    0.1119322    0.2672810   -0.1070954
12
 Energy =    -156.8596258055
 C    0.6756367    0.0753969   -0.0012461  0.00    0.0791974   -0.0850237    0.0304068
 C   -0.6388786   -0.1050414   -0.0117886  0.00   -0.5102284    0.2453898   -0.4649507
 H    1.3665217   -0.7597889   -0.0524213  0.00    0.1922407   -0.2280309   -0.0295395
 H    1.1106693    1.0571960    0.0907369  0.00    0.1851533    0.3914531    0.0137237
 H   -1.0723278   -1.0781907   -0.0859563  0.00   -0.2628708   -0.5644577   -0.0576703
 H   -1.3364179    0.7267615    0.0493629  0.00   -0.1658276    0.2053944    0.0065795
 C   -3.4651069   -0.3260166   -2.8498354  0.00    0.1501549    0.2157765    0.0644780
 C   -3.9242381    0.3477318   -3.9238482  0.00    0.1671341   -0.1882732    0.4238201
 H   -4.0809328   -1.0745998   -2.3625330  0.00   -0.1770728   -0.2170392    0.1402554
 H   -2.4941694   -0.1557548   -2.4019114  0.00    0.4084921    0.0850529    0.1560664
 H   -4.9254555    0.1812132   -4.3093836  0.00   -0.2417534   -0.0750106   -0.1298548
 H   -3.3299187    1.1110928   -4.4129090  0.00    0.1754141    0.2147953   -0.1532740
12
 Energy =    -156.8603911308
 C    0.6657324    0.0863503   -0.0074802  0.00    0.0917846   -0.0816143    0.0327690
 C   -0.6431802   -0.1313667   -0.0210798  0.00   -0.4792929    0.2623188   -0.4736958
 H    1.3801578   -0.7298184   -0.0386003  0.00    0.2001369   -0.2233882   -0.0030360
 H    1.0723610    1.0815540    0.0675898  0.00    0.1769444    0.4002106   -0.0146598
 H   -1.0380795   -1.1226382   -0.0562255  0.00   -0.2768257   -0.5600872   -0.0570453
 H   -1.3555366    0.6898590   -0.0001235  0.00   -0.1966684    0.1716211    0.0153692
 C   -3.4680112   -0.3188769   -2.8393717  0.00    0.1486713    0.2149434    0.0599085
 C   -3.9131322    0.3542306   -3.9199125  0.00    0.1678370   -0.1885525    0.4291113
 H   -4.1029089   -1.0439735   -2.3411167  0.00   -0.1829477   -0.2103717    0.1440508
 H   -2.4913992   -0.1713036   -2.3958117  0.00    0.4129569    0.0774365    0.1518061
 H   -4.9203996    0.2109354   -4.2990456  0.00   -0.2432097   -0.0700083   -0.1275208
 H   -3.3002218    1.0950480   -4.4205554  0.00    0.1806099    0.2075051   -0.1570656
12
 Energy =    -156.6682912337
 C    0.6604759    0.0922531   -0.0091665  0.00    0.0875952   -0.0818103    0.0410393
 C   -0.6446150   -0.1471150   -0.0251570  0.00   -0.9642814    0.2317846   -0.9987140
 H    1.3882458   -0.7125863   -0.0191955  0.00    0.2051003   -0.2230385    0.0233480
 H    1.0504631    1.0954273    0.0465895  0.00    0.1711902    0.4046455   -0.0363839
 H   -1.0289160   -1.1431927   -0.0405561  0.00   -0.2631657   -0.5708483   -0.0570527
 H   -1.3744209    0.6580901   -0.0612041  0.00   -0.2095570    0.1814938    0.0189264
 C   -3.4657193   -0.3139437   -2.8298967  0.00    0.5667135    0.2309128    0.4864084
 C   -3.9053271    0.3597719   -3.9117880  0.00    0.1542239   -0.1782935    0.4091857
 H   -4.1080077   -1.0300963   -2.3281584  0.00   -0.1813571   -0.2097812    0.1513899
 H   -2.4868783   -0.1763608   -2.3879943  0.00    0.4967790    0.0761228    0.2491715
 H   -4.9146870    0.2258654   -4.2887978  0.00   -0.2466837   -0.0675265   -0.1282052
 H   -3.2852315    1.0918870   -4.4164082  0.00    0.1834554    0.2063557   -0.1590979
12
 Energy =    -156.4797627349
 C    0.6508134    0.0897815   -0.0057740  0.00    0.0957072   -0.0819649    0.0579335
 C   -0.6554422   -0.1421168   -0.0312203  0.00   -1.3884035    0.2163133   -1.5328127
 H    1.3733438   -0.7191353   -0.0209247  0.00    0.2149660   -0.2297112    0.0124249
 H    1.0466840    1.0893568    0.0653606  0.00    0.1773787    0.4112970   -0.0140479
 H   -1.0344993   -1.1376466   -0.1000439  0.00   -0.3100517   -0.5599818   -0.0570372
 H   -1.3730829    0.6734379   -0.0726361  0.00   -0.2514194    0.1557800    0.0099754
 C   -3.4537219   -0.3095983   -2.8205254  0.00    0.9798825    0.2101003    0.9546468
 C   -3.9001891    0.3538823   -3.9037731  0.00    0.1451272   -0.1394343    0.3623856
 H   -4.0973819   -1.0204010   -2.3132639  0.00   -0.1769278   -0.2149994    0.1640408
 H   -2.4741529   -0.1767107   -2.3778826  0.00    0.5767811    0.0913062    0.3367017
 H   -4.9117345    0.2154393   -4.2734376  0.00   -0.2503143   -0.0677502   -0.1264682
 H   -3.2852546    1.0837108   -4.4176122  0.00    0.1872779    0.2090694   -0.1677553
12
 Energy =    -156.8623913951
 C    0.6531637    0.0931008   -0.0057545  0.00    0.1103493   -0.0800926    0.0635589
 C   -0.6519001   -0.1394781   -0.0356595  0.00   -0.5505550    0.2523160   -0.5739619
 H    1.3776935   -0.7134661   -0.0437329  0.00    0.2070934   -0.2227584   -0.0008118
 H    1.0445451    1.0921193    0.0956189  0.00    0.1748282    0.3997052   -0.0011124
 H   -1.0456421   -1.1277762   -0.1330816  0.00   -0.2396340   -0.5661247   -0.0432138
 H   -1.3770270    0.6709003   -0.0449576  0.00   -0.1868420    0.1873274    0.0557882
 C   -3.4545613   -0.3105505   -2.8186128  0.00    0.1677945    0.1339803    0.1338843
 C   -3.8957529    0.3462379   -3.9067773  0.00    0.1366327   -0.1111229    0.3675093
 H   -4.1054484   -1.0118566   -2.3077256  0.00   -0.1947868   -0.1961921    0.1743782
 H   -2.4712376   -0.1899868   -2.3795414  0.00    0.4096948    0.0741593    0.1168791
 H   -4.9196605    0.2356967   -4.2559084  0.00   -0.2122065   -0.0778356   -0.1270706
 H   -3.2687905    1.0550594   -4.4356006  0.00    0.1776228    0.2066384   -0.1658724
12
 Energy =    -156.8628681298
 C    0.6547821    0.0955260   -0.0066741  0.00    0.1315907   -0.0742990    0.0583153
 C   -0.6501668   -0.1376301   -0.0377808  0.00   -0.6202733    0.2329673   -0.5570497
 H    1.3813347   -0.7095398   -0.0742335  0.00    0.1887593   -0.1965738   -0.0128082
 H    1.0434982    1.0944424    0.1242420  0.00    0.1640446    0.3596078    0.0116882
 H   -1.0533398   -1.1218325   -0.1674773  0.00   -0.2000092   -0.5185843   -0.0522490
 H   -1.3800755    0.6711610   -0.0069438  0.00   -0.1493208    0.1665032    0.0524765
 C   -3.4550326   -0.3108946   -2.8170906  0.00    0.1733010    0.1109489    0.1836084
 C   -3.8913725    0.3392259   -3.9099357  0.00    0.1306622   -0.0817980    0.3297608
 H   -4.1203547   -0.9912384   -2.2938404  0.00   -0.1760590   -0.1866624    0.1666328
 H   -2.4680390   -0.2019765   -2.3790665  0.00    0.3839038    0.0715741    0.1013061
 H   -4.9189483    0.2370990   -4.2544494  0.00   -0.1945412   -0.0698728   -0.1173790
 H   -3.2569040    1.0356578   -4.4484831  0.00    0.1679120    0.1861765   -0.1643912
12
 Energy =    -156.8621574275
 C    0.6525816    0.0936366   -0.0034291  0.00    0.1133365   -0.0810523    0.0694585
 C   -0.6523568   -0.1379064   -0.0352325  0.00   -0.5462412    0.2501088   -0.5892875
 H    1.3764068   -0.7131762   -0.0405288  0.00    0.2115541   -0.2270363   -0.0048256
 H    1.0443981    1.0918657    0.1004136  0.00    0.1778051    0.4055159    0.0045564
 H   -1.0449742   -1.1254340   -0.1427363  0.00   -0.2453592   -0.5665036   -0.0406285
 H   -1.3749490    0.6740848   -0.0480061  0.00   -0.1958934    0.1888483    0.0610811
 C   -3.4556465   -0.3112599   -2.8177612  0.00    0.1772589    0.1237196    0.1207174
 C   -3.8957552    0.3449593   -3.9066052  0.00    0.1148518   -0.1026845    0.3715183
 H   -4.1024993   -1.0192356   -2.3120057  0.00   -0.2089374   -0.1840411    0.1902751
 H   -2.4718269   -0.1920635   -2.3805692  0.00    0.4201824    0.0660865    0.1137279
 H   -4.9257594    0.2483699   -4.2451186  0.00   -0.1915174   -0.0873865   -0.1343081
 H   -3.2642372    1.0461593   -4.4401543  0.00    0.1729505    0.2144211   -0.1623325
12
 Energy =    -156.8638033358
 C    0.6511767    0.0944606   -0.0052252  0.00    0.1071575   -0.0569705    0.0451271
 C   -0.6589727   -0.1337385   -0.0339471  0.00   -0.4987213    0.1689459   -0.5654549
 H    1.3754061   -0.7175181   -0.0743099  0.00    0.1481208   -0.1507365   -0.0102636
 H    1.0510931    1.0961915    0.1124800  0.00    0.1260491    0.2751469    0.0149434
 H   -1.0451565   -1.1329518   -0.1677712  0.00   -0.2069232   -0.3418788   -0.0219229
 H   -1.3725899    0.6928744    0.0015138  0.00   -0.1608613    0.0756892    0.0378137
 C   -3.4631597   -0.3040917   -2.8132293  0.00    0.2756174   -0.0157681    0.3278792
 C   -3.8952518    0.3461740   -3.9014165  0.00    0.1123633    0.0071654    0.1431500
 H   -4.1160591   -1.0154655   -2.3098746  0.00   -0.1610960   -0.1281285    0.1607848
 H   -2.4728866   -0.1954716   -2.3712266  0.00    0.3104983    0.0684795    0.0756484
 H   -4.9191522    0.2355911   -4.2616760  0.00   -0.1546431   -0.0643519   -0.1031573
 H   -3.2490654    1.0339456   -4.4470504  0.00    0.1023954    0.1624080   -0.1046301
12
 Energy =    -156.8643361986
 C    0.6561133    0.0983150   -0.0093581  0.00    0.1339207   -0.0458593    0.0322780
 C   -0.6540668   -0.1324085   -0.0393021  0.00   -0.6413349    0.1444060   -0.5148873
 H    1.3847764   -0.7116383   -0.1072281  0.00    0.1070755   -0.0991104   -0.0130016
 H    1.0511249    1.1031148    0.1364825  0.00    0.1021600    0.1973217    0.0109609
 H   -1.0621744   -1.1274031   -0.1854892  0.00   -0.1181598   -0.2698959   -0.0338850
 H   -1.3818215    0.6858781    0.0427399  0.00   -0.0698119    0.0429649    0.0194053
 C   -3.4655438   -0.3023955   -2.8121033  0.00    0.3234763   -0.0917277    0.4316800
 C   -3.8900737    0.3405335   -3.9038574  0.00    0.0773881    0.0880706    0.0306442
 H   -4.1297283   -1.0034346   -2.3040241  0.00   -0.1389808   -0.0935938    0.1567313
 H   -2.4698597   -0.2079712   -2.3704241  0.00    0.2602751    0.0606592    0.0476125
 H   -4.9221782    0.2466386   -4.2558755  0.00   -0.0972069   -0.0617228   -0.0922824
 H   -3.2311861    1.0107712   -4.4632936  0.00    0.0611589    0.1284829   -0.0753625
12
 Energy =    -156.6746734720
 C    0.6615392    0.0818133   -0.0003452  0.00    0.0455966   -0.0142087   -0.0027947
 C   -0.6647862   -0.0971238   -0.0367362  0.00   -0.9248645   -0.0535626   -0.9834577
 H    1.3599745   -0.7535481   -0.1571473  0.00    0.0418559   -0.0225169   -0.0109374
 H    1.1032796    1.0714994    0.1876729  0.00    0.0323759    0.0328230    0.0180846
 H   -1.1063430   -1.0831769   -0.2445597  0.00   -0.0738402   -0.0168410   -0.0151050
 H   -1.3526637    0.7455149    0.1200458  0.00   -0.0937849    0.0062330   -0.0212764
 C   -3.4560075   -0.2999604   -2.8200640  0.00    0.7556381   -0.2311575    1.1297349
 C   -3.8987080    0.3304683   -3.9048364  0.00    0.0302901    0.1858190   -0.2132755
 H   -4.1173995   -1.0106337   -2.2992356  0.00   -0.0055645   -0.0408144    0.0452227
 H   -2.4589995   -0.1914236   -2.3681764  0.00    0.2321799    0.1150466    0.1303145
 H   -4.9090539    0.1544520   -4.2966460  0.00   -0.0717989   -0.0006105   -0.0286339
 H   -3.2754498    1.0521186   -4.4517050  0.00    0.0318956    0.0398280   -0.0479180
12
 Energy =    -156.8667377557
 C    0.6369215    0.1464638   -0.0542680  0.00   -0.2272441   -0.0577909   -0.0111091
 C   -0.6806572   -0.1658948   -0.0705906  0.00   -0.1034602    0.0143182   -0.4319351
 H    1.4175797   -0.6093681   -0.2689325  0.00   -0.0553090    0.0608662    0.0039459
 H    0.9853342    1.1724034    0.1755230  0.00   -0.0176762   -0.0790400   -0.0092999
 H   -1.0147889   -1.1957965   -0.3007189  0.00   -0.0467471    0.0955328    0.0141131
 H   -1.4395999    0.5986185    0.1688492  0.00   -0.0440922   -0.0662507   -0.0522156
 C   -3.5146537   -0.3202338   -2.7339761  0.00   -0.0762002    0.3885697   -0.3955255
 C   -3.8191521    0.3374274   -3.9036162  0.00    0.1393320   -0.3771688    0.6656616
 H   -4.2835265   -0.8678494   -2.1505981  0.00    0.0669924    0.0597286   -0.0858173
 H   -2.5036157   -0.3265731   -2.3411151  0.00    0.3577090    0.0192640    0.2116493
 H   -4.8469230    0.3377950   -4.3137085  0.00    0.0594041    0.0068124    0.0295405
 H   -3.0515364    0.8930075   -4.4785812  0.00   -0.0527255   -0.0648514    0.0609623
12
 Energy =    -156.8646132684
 C    0.6588902    0.1295468   -0.0358954  0.00   -0.6471453    0.0564774   -0.0208237
 C   -0.6921757   -0.1411557   -0.0832470  0.00    0.5536081   -0.4920580   -0.4304092
 H    1.4304968   -0.6543519   -0.2016823  0.00   -0.1345731    0.0962860    0.0034450
 H    1.0423152    1.1695260    0.1662242  0.00   -0.1400559   -0.3298963   -0.0543909
 H   -1.0641443   -1.1971965   -0.2577546  0.00    0.1120077    0.4499709    0.0304235
 H   -1.4220226    0.6306226    0.1371253  0.00   -0.2345840    0.1842130   -0.0224917
 C   -3.4918637   -0.3177196   -2.7698303  0.00   -0.1581100   -0.0289611    0.2827784
 C   -3.8411713    0.3377221   -3.9038895  0.00   -0.0398775   -0.0122153    0.0336634
 H   -4.2547715   -0.9135291   -2.1790983  0.00    0.3105662    0.2045248   -0.2653426
 H   -2.4804439   -0.2945677   -2.3583290  0.00    0.2463629    0.0546975    0.1492202
 H   -4.8910130    0.2734169   -4.3123787  0.00    0.3612369    0.0601285    0.1326329
 H   -3.1087142    0.9776861   -4.4729775  0.00   -0.2294612   -0.2431724    0.1612552
12
 Energy =    -156.8679430369
 C    0.6351588    0.1477426   -0.0682488  0.00   -0.1671485   -0.0150409   -0.0029566
 C   -0.6805788   -0.1571348   -0.0786466  0.00   -0.2692837   -0.0644500   -0.4151307
 H    1.4125505   -0.6089074   -0.2847831  0.00   -0.0453148    0.0403628    0.0010210
 H    0.9893996    1.1720207    0.1613563  0.00   -0.0223770   -0.0783860   -0.0169285
 H   -1.0390033   -1.1842683   -0.2922435  0.00    0.0173295    0.0979921   -0.0049438
 H   -1.4486707    0.5966154    0.1645188  0.00   -0.0078598   -0.0150619   -0.0463338
 C   -3.5245018   -0.3283007   -2.7348252  0.00    0.2948085    0.2369757    0.0294174
 C   -3.8105090    0.3383674   -3.8830427  0.00    0.0511937   -0.2067258    0.2851925
 H   -4.2937641   -0.8841732   -2.1626165  0.00    0.0660384    0.0397404   -0.0665429
 H   -2.4987982   -0.3251167   -2.3357230  0.00    0.0972924   -0.0036000    0.1550609
 H   -4.8265175    0.3357572   -4.3214468  0.00    0.0519133    0.0215645    0.0361518
 H   -3.0293834    0.8973978   -4.4360320  0.00   -0.0666099   -0.0533711    0.0459576
12
 Energy =    -156.8682031409
 C    0.6266123    0.1524422   -0.0744102  0.00   -0.0827443   -0.0054806   -0.0064390
 C   -0.6836913   -0.1594858   -0.0816873  0.00   -0.3478158   -0.0634663   -0.4361798
 H    1.4071324   -0.5997786   -0.2903439  0.00   -0.0343584    0.0283357    0.0006830
 H    0.9773246    1.1775946    0.1480832  0.00   -0.0161204   -0.0521556   -0.0065060
 H   -1.0313541   -1.1881344   -0.2994032  0.00   -0.0030587    0.0830164    0.0032199
 H   -1.4563770    0.5929897    0.1514216  0.00   -0.0104926   -0.0261813   -0.0385622
 C   -3.5312597   -0.3393324   -2.7302032  0.00    0.4256594    0.2426850    0.1042633
 C   -3.7974059    0.3334931   -3.8743310  0.00   -0.0359309   -0.1525400    0.2214275
 H   -4.3064834   -0.8814343   -2.1579993  0.00    0.0467504    0.0142795   -0.0477644
 H   -2.5009798   -0.3349500   -2.3348323  0.00    0.0460331   -0.0376347    0.1653585
 H   -4.8118133    0.3595984   -4.3150184  0.00    0.0496323    0.0079491    0.0236473
 H   -3.0063228    0.8869975   -4.4130093  0.00   -0.0375756   -0.0388058    0.0168035
12
 Energy =    -156.8684263899
 C    0.6172057    0.1573095   -0.0862342  0.00   -0.0517837    0.0155073   -0.0157271
 C   -0.6906895   -0.1610344   -0.0878672  0.00   -0.3421539   -0.0894134   -0.4244504
 H    1.4013536   -0.5905250   -0.3032954  0.00   -0.0361219    0.0190010    0.0056219
 H    0.9675406    1.1849413    0.1259187  0.00   -0.0254414   -0.0496942   -0.0058062
 H   -1.0267415   -1.1959815   -0.2908624  0.00   -0.0170465    0.0800437   -0.0066440
 H   -1.4683162    0.5850687    0.1432345  0.00   -0.0220860   -0.0121317   -0.0353939
 C   -3.5396329   -0.3468165   -2.7234988  0.00    0.5597118    0.2070650    0.2470176
 C   -3.7847597    0.3375890   -3.8579568  0.00   -0.0862167   -0.0964207    0.0543610
 H   -4.3197895   -0.8852523   -2.1547420  0.00    0.0550401    0.0131541   -0.0494282
 H   -2.5027987   -0.3401324   -2.3335417  0.00   -0.0265053   -0.0709792    0.1829493
 H   -4.7902058    0.3750500   -4.3175594  0.00    0.0398894    0.0163202    0.0269445
 H   -2.9777839    0.8797834   -4.3853283  0.00   -0.0473145   -0.0324499    0.0204889
12
 Energy =    -156.8685867999
 C    0.6107425    0.1605065   -0.0945064  0.00   -0.0436426    0.0321590   -0.0175096
 C   -0.6960172   -0.1622004   -0.0899977  0.00   -0.3455780   -0.1344359   -0.4365283
 H    1.3976608   -0.5855187   -0.3089465  0.00   -0.0414660    0.0164654    0.0084711
 H    0.9601720    1.1917486    0.1057590  0.00   -0.0338428   -0.0592832   -0.0044039
 H   -1.0283963   -1.2018630   -0.2835129  0.00   -0.0061709    0.1013587   -0.0036114
 H   -1.4794691    0.5785282    0.1339041  0.00   -0.0233883    0.0061045   -0.0284880
 C   -3.5407691   -0.3536003   -2.7184963  0.00    0.6263054    0.2088927    0.2888413
 C   -3.7741185    0.3384905   -3.8489342  0.00   -0.1337219   -0.0689463    0.0017446
 H   -4.3264577   -0.8874810   -2.1512564  0.00    0.0747941    0.0159145   -0.0578324
 H   -2.4989443   -0.3464829   -2.3328272  0.00   -0.0794592   -0.0918102    0.1919938
 H   -4.7779443    0.3875731   -4.3144567  0.00    0.0577136    0.0144382    0.0341238
 H   -2.9610768    0.8802994   -4.3684621  0.00   -0.0515737   -0.0408594    0.0231255
12
 Energy =    -156.8689765066
 C    0.5963966    0.1649086   -0.1129999  0.00   -0.0344109    0.0708923   -0.0235563
 C   -0.7090179   -0.1642769   -0.0924921  0.00   -0.3277190   -0.2036236   -0.4324738
 H    1.3871570   -0.5803875   -0.3185094  0.00   -0.0544923    0.0150590    0.0143032
 H    0.9465085    1.2032919    0.0590416  0.00   -0.0544550   -0.0858616   -0.0074670
 H   -1.0325002   -1.2143614   -0.2545250  0.00    0.0032037    0.1289243   -0.0083296
 H   -1.5020923    0.5675019    0.1200731  0.00   -0.0241865    0.0353396   -0.0249582
 C   -3.5364215   -0.3648044   -2.7099209  0.00    0.7115801    0.2367129    0.3047124
 C   -3.7555572    0.3439145   -3.8322710  0.00   -0.1992644   -0.0499388   -0.0526228
 H   -4.3294771   -0.8959037   -2.1465446  0.00    0.1131445    0.0238038   -0.0739714
 H   -2.4857049   -0.3554641   -2.3350255  0.00   -0.1575774   -0.1268147    0.2154554
 H   -4.7571056    0.4061781   -4.3066771  0.00    0.0845286    0.0162187    0.0500613
 H   -2.9368034    0.8894032   -4.3418824  0.00   -0.0603794   -0.0607174    0.0387653
12
 Energy =    -156.8694025290
 C    0.5704743    0.1710081   -0.1442739  0.00   -0.0194817    0.1251702   -0.0321206
 C   -0.7319315   -0.1683429   -0.0941878  0.00   -0.3037109   -0.3147493   -0.4380888
 H    1.3679233   -0.5742309   -0.3262700  0.00   -0.0714604    0.0100959    0.0214661
 H    0.9200058    1.2204434   -0.0291958  0.00   -0.0827192   -0.1192145   -0.0032944
 H   -1.0395367   -1.2341366   -0.2002212  0.00    0.0163100    0.1768989   -0.0138828
 H   -1.5411621    0.5504533    0.0887004  0.00   -0.0265442    0.0799416   -0.0177483
 C   -3.5243281   -0.3841811   -2.6970651  0.00    0.8380182    0.2945281    0.3147958
 C   -3.7250080    0.3537888   -3.8034231  0.00   -0.3044438   -0.0192623   -0.1269142
 H   -4.3267808   -0.9142147   -2.1409844  0.00    0.1680088    0.0327705   -0.0923507
 H   -2.4598116   -0.3685798   -2.3410529  0.00   -0.2687272   -0.1880960    0.2565644
 H   -4.7246385    0.4397484   -4.2869268  0.00    0.1264157    0.0113642    0.0734110
 H   -2.8998240    0.9082439   -4.2968325  0.00   -0.0716757   -0.0894524    0.0581028
12
 Energy =    -156.8701656050
 C    0.5494986    0.1688262   -0.1660653  0.00   -0.0154191    0.1538508   -0.0431890
 C   -0.7519673   -0.1703194   -0.0891626  0.00   -0.2822225   -0.3747255   -0.4322977
 H    1.3485498   -0.5827331   -0.3133306  0.00   -0.0795653    0.0075953    0.0247640
 H    0.9014946    1.2238821   -0.1132134  0.00   -0.0982149   -0.1340382    0.0049787
 H   -1.0510927   -1.2448589   -0.1345114  0.00    0.0194598    0.2020421   -0.0228019
 H   -1.5692489    0.5463430    0.0567881  0.00   -0.0256012    0.1019455   -0.0186209
 C   -3.4982159   -0.3956363   -2.6948442  0.00    0.8715635    0.3466584    0.2938347
 C   -3.7103457    0.3661695   -3.7838912  0.00   -0.3510862   -0.0189677   -0.1417535
 H   -4.2963963   -0.9409173   -2.1447596  0.00    0.1984876    0.0390629   -0.0977907
 H   -2.4256826   -0.3673900   -2.3547978  0.00   -0.3130928   -0.2250198    0.2766379
 H   -4.7149165    0.4538258   -4.2613027  0.00    0.1467281    0.0094306    0.0849622
 H   -2.8962950    0.9428084   -4.2726425  0.00   -0.0710163   -0.1078276    0.0712736
12
 Energy =    -156.8718511981
 C    0.5114906    0.1575055   -0.2032162  0.00   -0.0099159    0.1928363   -0.0676283
 C   -0.7898722   -0.1695800   -0.0792281  0.00   -0.2412080   -0.4535607   -0.4036176
 H    1.3098012   -0.6059418   -0.2762987  0.00   -0.0891915    0.0037959    0.0288536
 H    0.8714509    1.2110958   -0.2697715  0.00   -0.1208533   -0.1507378    0.0230420
 H   -1.0791197   -1.2477861   -0.0060905  0.00    0.0183259    0.2302898   -0.0461464
 H   -1.6160052    0.5460843   -0.0070023  0.00   -0.0251437    0.1317934   -0.0280768
 C   -3.4396245   -0.4134503   -2.6971312  0.00    0.8937614    0.4402399    0.2591942
 C   -3.6916212    0.3903465   -3.7486185  0.00   -0.4133169   -0.0269816   -0.1611408
 H   -4.2176771   -1.0014168   -2.1592282  0.00    0.2367290    0.0518054   -0.1001337
 H   -2.3562780   -0.3509121   -2.3865744  0.00   -0.3554994   -0.2924767    0.3058074
 H   -4.7081132    0.4667877   -4.2083227  0.00    0.1724906    0.0082891    0.0993503
 H   -2.9090496    1.0172672   -4.2302507  0.00   -0.0661509   -0.1352704    0.0905479
12
 Energy =    -156.6965799592
 C    0.4744279    0.1378922   -0.2370004  0.00   -0.0089211    0.2198436   -0.1084921
 C   -0.8295357   -0.1604128   -0.0708632  0.00   -0.6348454   -0.5674456   -0.8389812
 H    1.2656225   -0.6366331   -0.2319661  0.00   -0.0945574    0.0003951    0.0328412
 H    0.8503660    1.1733735   -0.4220248  0.00   -0.1424406   -0.1580075    0.0447777
 H   -1.1178225   -1.2267999    0.1192886  0.00    0.0056961    0.2532899   -0.0831854
 H   -1.6571227    0.5552391   -0.0744271  0.00   -0.0451505    0.1490313   -0.0681037
 C   -3.3716766   -0.4294762   -2.7046984  0.00    1.2943373    0.5828243    0.6593336
 C   -3.6793064    0.4124734   -3.7121549  0.00   -0.4757818   -0.0376161   -0.1813991
 H   -4.1175672   -1.0737166   -2.1831096  0.00    0.2706172    0.0699607   -0.0967687
 H   -2.2821959   -0.3161089   -2.4211146  0.00   -0.3086677   -0.3633312    0.4294018
 H   -4.7085604    0.4620780   -4.1523619  0.00    0.1932810    0.0100401    0.1097811
 H   -2.9412470    1.1020912   -4.1813008  0.00   -0.0535534   -0.1589701    0.1008365
12
 Energy =    -156.7020609815
 C    0.4330017    0.1102543   -0.2804540  0.00    0.0153671    0.2325076   -0.1412304
 C   -0.8725503   -0.1439246   -0.0650405  0.00   -0.6325160   -0.6143276   -0.7901320
 H    1.2151147   -0.6708834   -0.2014914  0.00   -0.1120803    0.0107755    0.0338365
 H    0.8229270    1.1142827   -0.5815800  0.00   -0.1518402   -0.1652755    0.0673733
 H   -1.1770860   -1.1810943    0.2405715  0.00    0.0258761    0.2716974   -0.1136596
 H   -1.6929244    0.5762788   -0.1393546  0.00   -0.0333073    0.1528260   -0.0840327
 C   -3.3011076   -0.4439812   -2.7020600  0.00    1.2922042    0.7724188    0.5352285
 C   -3.6659656    0.4364149   -3.6635664  0.00   -0.4817718   -0.1413972   -0.1336000
 H   -3.9973737   -1.1697801   -2.2209688  0.00    0.2779472    0.1056798   -0.0760774
 H   -2.2099570   -0.2640774   -2.4489241  0.00   -0.3338115   -0.4669083    0.4635937
 H   -4.6965524    0.4470453   -4.1037331  0.00    0.1836805    0.0188808    0.1206947
 H   -2.9721444    1.1894651   -4.1051319  0.00   -0.0497318   -0.1768888    0.1180099
12
 Energy =    -156.5279620623
 C    0.3889877    0.1465866   -0.3345032  0.00    0.2063912    0.1338552   -0.1996702
 C   -0.8747538   -0.1706197   -0.0381882  0.00   -1.6993110   -0.4536223   -1.2702604
 H    1.1987367   -0.6154899   -0.3279536  0.00   -0.1247650    0.0660748    0.0384188
 H    0.7150818    1.1629151   -0.6408079  0.00   -0.0976162   -0.0657910    0.0551984
 H   -1.1321390   -1.2232555    0.2323292  0.00    0.0512786    0.1628046   -0.0544029
 H   -1.7782002    0.4929978   -0.0500964  0.00    0.3153533   -0.0153600   -0.1111599
 C   -3.3065702   -0.4566847   -2.6615902  0.00    1.5890489    1.2249570    0.5158006
 C   -3.6001042    0.4455525   -3.6576176  0.00   -0.4329327   -0.5443195    0.2672608
 H   -4.0460983   -1.1060436   -2.1478580  0.00    0.2277474    0.0468229   -0.0747229
 H   -2.2172792   -0.3196114   -2.4206109  0.00   -0.1483849   -0.4589292    0.6309823
 H   -4.6156936    0.5250775   -4.1112221  0.00    0.0993320    0.0084148    0.1025103
 H   -2.8465858    1.1185752   -4.1136143  0.00    0.0138283   -0.1048928    0.1000450
12
 Energy =    -156.8752753846
 C    0.4001894    0.1304631   -0.3221704  0.00    0.1031207    0.1873356   -0.1213881
 C   -0.8844806   -0.1659263   -0.0618535  0.00   -0.4709465   -0.4344896   -0.3175142
 H    1.2101530   -0.6271947   -0.2544822  0.00   -0.1397633    0.0483160    0.0274774
 H    0.7451281    1.1415412   -0.6435543  0.00   -0.1261934   -0.1400100    0.0611401
 H   -1.1515380   -1.2069163    0.2572891  0.00    0.0427076    0.2321988   -0.0893385
 H   -1.7511714    0.5205179   -0.1224012  0.00    0.1606523    0.0572707   -0.0509548
 C   -3.3030277   -0.4546624   -2.6710464  0.00    0.8469054    0.9655273   -0.1960178
 C   -3.6214921    0.4485409   -3.6458366  0.00   -0.4427723   -0.3763326    0.0967550
 H   -4.0217981   -1.1452499   -2.1775184  0.00    0.2478418    0.0854500   -0.0825713
 H   -2.2090428   -0.3047831   -2.4442437  0.00   -0.3173430   -0.4874772    0.4414146
 H   -4.6424885    0.5102006   -4.0945041  0.00    0.1289844    0.0150380    0.1096454
 H   -2.8850494    1.1534691   -4.0914116  0.00   -0.0332088   -0.1528044    0.1213193
12
 Energy =    -156.8762206214
 C    0.4214808    0.1202329   -0.2874727  0.00   -0.0330363    0.2090287   -0.0972284
 C   -0.8828056   -0.1604351   -0.0762219  0.00   -0.1401153   -0.5049740   -0.3597491
 H    1.2240362   -0.6396659   -0.1835054  0.00   -0.1393095    0.0281984    0.0215487
 H    0.7879960    1.1297419   -0.5999052  0.00   -0.1435943   -0.1740445    0.0707945
 H   -1.1619741   -1.2056968    0.2294206  0.00    0.0076823    0.3031573   -0.0909228
 H   -1.7141432    0.5494741   -0.1817943  0.00    0.0172325    0.0889622   -0.0365266
 C   -3.3008299   -0.4503523   -2.6856381  0.00    0.8264680    0.8642999   -0.0995080
 C   -3.6505658    0.4417612   -3.6535133  0.00   -0.4310471   -0.2419015    0.0203398
 H   -4.0112329   -1.1479407   -2.1880861  0.00    0.2621486    0.0815664   -0.0794257
 H   -2.2051452   -0.2971429   -2.4594279  0.00   -0.3442960   -0.4647142    0.4030782
 H   -4.6851211    0.4894009   -4.0799291  0.00    0.1794846    0.0063368    0.1181295
 H   -2.9363132    1.1706226   -4.1056598  0.00   -0.0616176   -0.1959133    0.1294746
12
 Energy =    -156.8774073188
 C    0.4250306    0.1057405   -0.2702914  0.00   -0.0696238    0.2318620   -0.1224500
 C   -0.8852080   -0.1508532   -0.0650694  0.00   -0.0707332   -0.6095851   -0.4057428
 H    1.2158396   -0.6618016   -0.1717118  0.00   -0.0995696   -0.0085750    0.0297449
 H    0.7967509    1.1104716   -0.5925216  0.00   -0.1255769   -0.1744105    0.0975011
 H   -1.1988972   -1.1989139    0.2144811  0.00    0.0349634    0.3871357   -0.0725972
 H   -1.6775872    0.5900661   -0.1886170  0.00   -0.0965712    0.1231386   -0.0231325
 C   -3.2740341   -0.4440038   -2.6950222  0.00    0.8208834    0.8317429   -0.0716107
 C   -3.6640631    0.4332602   -3.6613992  0.00   -0.3873671   -0.1656719    0.0412849
 H   -3.9792242   -1.1554864   -2.2096504  0.00    0.2805254    0.0717111   -0.0476759
 H   -2.1737636   -0.2829922   -2.4520370  0.00   -0.4672337   -0.4392447    0.3141887
 H   -4.7147390    0.4593125   -4.0603949  0.00    0.2484953   -0.0156831    0.1236193
 H   -2.9847227    1.1952003   -4.1194995  0.00   -0.0681798   -0.2324278    0.1368949
12
 Energy =    -156.8788248771
 C    0.4365596    0.0869196   -0.2532187  0.00   -0.2052730    0.2971911   -0.0975096
 C   -0.8886125   -0.1481648   -0.0871855  0.00    0.2056287   -0.5856304   -0.3389190
 H    1.2151547   -0.6832697   -0.1437068  0.00   -0.0467340   -0.0884392    0.0272402
 H    0.8312078    1.0989428   -0.5333057  0.00   -0.1512008   -0.2206109    0.0740311
 H   -1.2360528   -1.1802821    0.2013323  0.00    0.0267025    0.3594455   -0.1165548
 H   -1.6244937    0.6387363   -0.1950077  0.00   -0.2547478    0.1867261   -0.0504424
 C   -3.2528522   -0.4468705   -2.7221161  0.00    0.6897627    0.7672707    0.0406311
 C   -3.6888631    0.4219461   -3.6685052  0.00   -0.3713347   -0.0395471   -0.0472068
 H   -3.9474108   -1.1571162   -2.2271041  0.00    0.2657760    0.0158157   -0.0170393
 H   -2.1639851   -0.2701510   -2.4730423  0.00   -0.3645595   -0.4195487    0.2817213